compound,flashpoint,pure substance,smiles,source,is_silicon,is_metallic,is_tin,is_acid
Trimethylphenylsilane,313.0,1,C[Si](C1=CC=CC=C1)(C)C,pan12,1,1,0,0
2-Cyanoethyltriethoxysilane,359.0,1,C(#N)CC[Si](OCC)(OCC)OCC,pan12,1,1,0,0
Cyclohexylmethyldimethoxysilane,343.0,1,C1(CCCCC1)C[SiH](OC)OC,pan12,1,1,0,0
3-Glycidoxypropyltrimethoxysilane,383.0,1,C(C1CO1)OCCC[Si](OC)(OC)OC,pan12,1,1,0,0
Di-t-butylmethylchlorosilane,342.0,1,C(C)(C)(C)[Si](Cl)(C)C(C)(C)C,pan12,1,1,0,0
Hexyltrimethoxysilane,335.0,1,C(CCCCC)[Si](OC)(OC)OC,pan12,1,1,0,0
Triisopropylsilane,310.0,1,C(C)(C)[SiH](C(C)C)C(C)C,pan12,1,1,0,0
Tri-n-propylsilane,316.0,1,C(CC)[SiH](CCC)CCC,pan12,1,1,0,0
(Diisopropylamino)trimethylsilane,301.0,1,C(C)(C)N(C(C)C)[Si](C)(C)C,pan12,1,1,0,0
1-Chlorononamethyltetrasiloxane,347.0,1,Cl[Si](O[Si](O[Si](O[Si](C)(C)C)(C)C)(C)C)(C)C,pan12,1,1,0,0
Propyltris(dimethylsiloxy)silane,323.0,1,C(CC)[Si](O[SiH](C)C)(O[SiH](C)C)O[SiH](C)C,pan12,1,1,0,0
Benzyltrimethylsilane,335.0,1,C(C1=CC=CC=C1)[Si](C)(C)C,pan12,1,1,0,0
3-Methacryloxypropyltrimethoxysilane,365.0,1,C(C(=C)C)(=O)OCCC[Si](OC)(OC)OC,pan12,1,1,0,0
n-Octyldimethylchlorosilane,370.0,1,C(CCCCCCC)[Si](Cl)(C)C,pan12,1,1,0,0
Bis(diethylamino)dimethylsilane,308.0,1,C(C)N(CC)[Si](C)(C)N(CC)CC,pan12,1,1,0,0
Decamethyltetrasiloxane,335.0,1,C[Si](O[Si](O[Si](O[Si](C)(C)C)(C)C)(C)C)(C)C,pan12,1,1,0,0
Decamethylcyclopentasiloxane,350.0,1,C[Si]1(O[Si](O[Si](O[Si](O[Si](O1)(C)C)(C)C)(C)C)(C)C)C,pan12,1,1,0,0
"2-(3,4-epoxycyclohexyl)ethyltrimethoxysilane",419.0,1,C1(CC2C(CC1)O2)CC[Si](OC)(OC)OC,pan12,1,1,0,0
n-Decylmethyldichlorosilane,393.0,1,C(CCCCCCCCC)[Si](Cl)(Cl)C,pan12,1,1,0,0
Vinyltriethylsilane,318.0,1,C(=C)[Si](CC)(CC)CC,pan12,1,1,0,0
Phenyltriethoxysilane,393.0,1,C1(=CC=CC=C1)[Si](OCC)(OCC)OCC,pan12,1,1,0,0
Diphenylsilane,371.0,1,C1(=CC=CC=C1)[SiH2]C1=CC=CC=C1,pan12,1,1,0,0
Tetramethyltetravinylcyclotetrasilane,385.0,1,C[Si]1([Si]([Si]([Si]1(C=C)C)(C=C)C)(C=C)C)C=C,pan12,1,1,0,0
n-Dodecyltrichlorosilane,435.0,1,C(CCCCCCCCCCC)[Si](Cl)(Cl)Cl,pan12,1,1,0,0
Hexaethyldisiloxane,349.0,1,C(C)[Si](O[Si](CC)(CC)CC)(CC)CC,pan12,1,1,0,0
Dodecamethylpentasiloxane,352.0,1,C[Si](O[Si](O[Si](O[Si](O[Si](C)(C)C)(C)C)(C)C)(C)C)(C)C,pan12,1,1,0,0
Dodecamethylcyclohexasiloxane,366.0,1,C[Si]1(O[Si](O[Si](O[Si](O[Si](O[Si](O1)(C)C)(C)C)(C)C)(C)C)(C)C)C,pan12,1,1,0,0
Methyldiphenylchlorosilane,411.0,1,C[Si](Cl)(C1=CC=CC=C1)C1=CC=CC=C1,pan12,1,1,0,0
n-Dodecylmethyldichlorosilane,416.0,1,C(CCCCCCCCCCC)[Si](Cl)(Cl)C,pan12,1,1,0,0
Diphenyldimethoxysilane,394.0,1,C1(=CC=CC=C1)[Si](OC)(OC)C1=CC=CC=C1,pan12,1,1,0,0
Octyltriethoxysilane,373.0,1,C(CCCCCCC)[Si](OCC)(OCC)OCC,pan12,1,1,0,0
Tetradecamethylhexasiloxane,375.0,1,C[Si](O[Si](O[Si](O[Si](O[Si](O[Si](C)(C)C)(C)C)(C)C)(C)C)(C)C)(C)C,pan12,1,1,0,0
n-Octadecyltrichlorosilane,466.0,1,C(CCCCCCCCCCCCCCCCC)[Si](Cl)(Cl)Cl,pan12,1,1,0,0
Octadecamethyloctasiloxane,417.0,1,C[Si](O[Si](O[Si](O[Si](O[Si](O[Si](O[Si](O[Si](C)(C)C)(C)C)(C)C)(C)C)(C)C)(C)C)(C)C)(C)C,pan12,1,1,0,0
Vinyltrichlorosilane,294.0,1,C(=C)[Si](Cl)(Cl)Cl,pan12,1,1,0,0
Ethylsilane,213.0,1,C(C)[SiH3],pan12,1,1,0,0
n-Propyltrichlorosilane,310.0,1,C(CC)[Si](Cl)(Cl)Cl,pan12,1,1,0,0
Trimethylfluorosilane,238.0,1,C[Si](F)(C)C,pan12,1,1,0,0
Dimethylvinylchlorosilane,268.0,1,CC(=C[SiH2]Cl)C,pan12,1,1,0,0
Trimethylsilylisothiocyanate,308.0,1,C[Si](C)(C)N=C=S,pan12,1,1,0,0
Methoxytrimethylsilane,243.0,1,CO[Si](C)(C)C,pan12,1,1,0,0
Diethylsilane,253.0,1,C(C)[SiH2]CC,pan12,1,1,0,0
Tetraisocyanatosilane,323.0,1,N(=C=O)[Si](N=C=O)(N=C=O)N=C=O,pan12,1,1,0,0
sec-Amyltrichlorosilane,303.0,1,C(C)(CCC)[Si](Cl)(Cl)Cl,pan12,1,1,0,0
Vinyltrimethoxysilane,296.0,1,C(=C)[Si](OC)(OC)OC,pan12,1,1,0,0
Ethoxytrimethylsilane,246.0,1,C(C)O[Si](C)(C)C,pan12,1,1,0,0
Phenyltrichlorosilane,364.0,1,C1(=CC=CC=C1)[Si](Cl)(Cl)Cl,pan12,1,1,0,0
Cyclohexyltrichlorosilane,358.0,1,C1(CCCCC1)[Si](Cl)(Cl)Cl,pan12,1,1,0,0
1-Trimethylsilylpropyne,270.0,1,C[Si](C#CC)(C)C,pan12,1,1,0,0
Hexyldichlorosilane,337.0,1,C(CCCCC)[SiH](Cl)Cl,pan12,1,1,0,0
Allyltrimethoxysilane,319.0,1,C(C=C)[Si](OC)(OC)OC,pan12,1,1,0,0
3-Chloropropylmethyldimethoxysilane,318.0,1,ClCCC[Si](OC)(OC)C,pan12,1,1,0,0
n-Propyltrimethoxysilane,298.0,1,C(CC)[Si](OC)(OC)OC,pan12,1,1,0,0
Hexamethyldisiloxane,270.0,1,C[Si](O[Si](C)(C)C)(C)C,pan12,1,1,0,0
Hexamethyldisilazane,281.0,1,C[Si](N[Si](C)(C)C)(C)C,pan12,1,1,0,0
Methyltriacetoxysilane,358.0,1,C[Si](OC(C)=O)(OC(C)=O)OC(C)=O,pan12,1,1,0,0
n-Heptyltrichlorosilane,337.0,1,C(CCCCCC)[Si](Cl)(Cl)Cl,pan12,1,1,0,0
(1-Methoxy-2-propoxy)trimethylsilane,293.0,1,COCC(C)O[Si](C)(C)C,pan12,1,1,0,0
Heptamethyldisilazane,300.0,1,C[Si](N([Si](C)(C)C)C)(C)C,pan12,1,1,0,0
Vinyltriacetoxysilane,361.0,1,C(=C)[Si](OC(C)=O)(OC(C)=O)OC(C)=O,pan12,1,1,0,0
(Cyclopentenyloxy)trimethylsilane,311.0,1,C1(=CCCC1)O[Si](C)(C)C,pan12,1,1,0,0
Tetramethyldivinyldisiloxane,292.0,1,C[Si](O[Si](C=C)(C=C)C)(C)C,pan12,1,1,0,0
Diethyldiethoxysilane,316.0,1,C(C)[Si](OCC)(OCC)CC,pan12,1,1,0,0
Tetramethyldiethoxysiloxane,311.0,1,CC(C(O[Si]([O])OCC)(C)C)C,pan12,1,1,0,0
Tri-n-propylchlorosilane,349.0,1,C(CC)[Si](Cl)(CCC)CCC,pan12,1,1,0,0
Tris(trimethylsiloxy)boron,315.0,1,C[Si](OB(O[Si](C)(C)C)O[Si](C)(C)C)(C)C,pan12,1,1,0,0
1-Heptynyltrimethylsilane,315.0,1,C(#CCCCCC)[Si](C)(C)C,pan12,1,1,0,0
Tristrimethylsiloxymethylsilane,336.0,1,C[Si](OC(O[Si](C)(C)C)(O[Si](C)(C)C)[SiH3])(C)C,pan12,1,1,0,0
Diphenyldichlorosilane,415.0,1,C1(=CC=CC=C1)[Si](Cl)(Cl)C1=CC=CC=C1,pan12,1,1,0,0
Tetra-n-propoxysilane,368.0,1,C(CC)O[Si](OCCC)(OCCC)OCCC,pan12,1,1,0,0
Diphenylmethylsilane,393.0,1,C1(=CC=CC=C1)C(C1=CC=CC=C1)[SiH3],pan12,1,1,0,0
Hexadecamethylheptasiloxane,406.0,1,C[Si](O[Si](O[Si](O[Si](O[Si](O[Si](O[Si](C)(C)C)(C)C)(C)C)(C)C)(C)C)(C)C)(C)C,pan12,1,1,0,0
ACETOXYETHYLDIMETHYLCHLOROSILANE,336.15,1,CC(=O)OCC[Si](C)(C)Cl,gelest_silanes,1,1,0,0
ACETOXYETHYLMETHYLDICHLOROSILANE,338.15,1,CC(=O)OCC[Si](C)(Cl)Cl,gelest_silanes,1,1,0,0
ACETOXYETHYLTRICHLOROSILANE,355.15,1,CC(=O)OCC[Si](Cl)(Cl)Cl,gelest_silanes,1,1,0,0
ACETOXYETHYLTRIETHOXYSILANE,372.15,1,CCO[Si](CCOC(C)=O)(OCC)OCC,gelest_silanes,1,1,0,0
ACETOXYMETHYLTRIMETHYLSILANE,293.15,1,CC(=O)OC[Si](C)(C)C,gelest_silanes,1,1,0,0
3-ACETOXYPROPYLMETHYLDICHLOROSILANE,358.15,1,CC(=O)OCCC[Si](C)(Cl)Cl,gelest_silanes,1,1,0,0
3-ACETOXYPROPYLTRIMETHOXYSILANE,366.15,1,CO[Si](CCCOC(C)=O)(OC)OC,gelest_silanes,1,1,0,0
ACETOXYTRIMETHYLSILANE,277.15,1,CC(=O)O[Si](C)(C)C,gelest_silanes,1,1,0,0
ACETYLTRIMETHYLSILANE,281.15,1,CC(=O)[Si](C)(C)C,gelest_silanes,1,1,0,0
ACRYLOXYMETHYLTRIMETHOXYSILANE,335.15,1,C=CC(=O)OC[Si](OC)(OC)OC,gelest_silanes,1,1,0,0
(3-ACRYLOXYPROPYL)DIMETHYLMETHOXYSILANE,358.15,1,C=CC(=O)OCCC[Si](C)(C)OC,gelest_silanes,1,1,0,0
(3-ACRYLOXYPROPYL)TRIMETHOXYSILANE,396.15,1,C=CC(=O)OCCC[Si](OC)(OC)OC,gelest_silanes,1,1,0,0
(3-ACRYLOXYPROPYL)TRIS(TRIMETHYLSILOXY)SILANE,366.15,1,C=CC(=O)OCCC[Si](O[Si](C)(C)C)(O[Si](C)(C)C)O[Si](C)(C)C,gelest_silanes,1,1,0,0
ACRYLOXYTRIMETHYLSILANE,299.15,1,C=CC(=O)O[Si](C)(C)C,gelest_silanes,1,1,0,0
3-(N-ALLYLAMINO)PROPYLTRIMETHOXYSILANE,361.15,1,C=CCNCCC[Si](OC)(OC)OC,gelest_silanes,1,1,0,0
ALLYLAMINOTRIMETHYLSILANE,283.15,1,C=CCN[Si](C)(C)C,gelest_silanes,1,1,0,0
ALLYL(CHLOROMETHYL)DIMETHYLSILANE,300.15,1,C=CC[Si](C)(C)CCl,gelest_silanes,1,1,0,0
ALLYL(3-CHLOROPROPYL)DICHLOROSILANE,349.15,1,C=CC[Si](Cl)(Cl)CCCCl,gelest_silanes,1,1,0,0
ALLYLDICHLOROSILANE,269.15,1,C=CC[SiH](Cl)Cl,gelest_silanes,1,1,0,0
ALLYLDIMETHYL(DIISOPROPYLAMINO)SILANE,335.15,1,C=CC[Si](C)(C)N(C(C)C)C(C)C,gelest_silanes,1,1,0,0
ALLYLDIMETHYLSILANE,253.15,1,C=CC[SiH](C)C,gelest_silanes,1,1,0,0
ALLYL(4-METHOXYPHENYL)DIMETHYLSILANE,375.15,1,C=CC[Si](C)(C)c1ccc(OC)cc1,gelest_silanes,1,1,0,0
ALLYLMETHYLDICHLOROSILANE,300.15,1,C=CCC[SiH](Cl)Cl,gelest_silanes,1,1,0,0
ALLYLOXY-t-BUTYLDIMETHYLSILANE,305.15,1,C=CCO[Si](C)(C)C(C)(C)C,gelest_silanes,1,1,0,0
ALLYLOXYTRIMETHYLSILANE,273.15,1,C=CCO[Si](C)(C)C,gelest_silanes,1,1,0,0
ALLYLPHENYLDICHLOROSILANE,349.15,1,C=CC[Si](Cl)(Cl)c1ccccc1,gelest_silanes,1,1,0,0
ALLYLTRICHLOROSILANE,304.15,1,C=CC[Si](Cl)(Cl)Cl,gelest_silanes,1,1,0,0
ALLYLTRIETHOXYSILANE,320.15,1,C=CC[Si](OCC)(OCC)OCC,gelest_silanes,1,1,0,0
ALLYLTRIISOPROPYLSILANE,349.15,1,C=CC[Si](C(C)C)(C(C)C)C(C)C,gelest_silanes,1,1,0,0
ALLYLTRIMETHOXYSILANE,319.15,1,C=CC[Si](OC)(OC)OC,gelest_silanes,1,1,0,0
ALLYLTRIMETHYLSILANE,280.15,1,C=CC[Si](C)(C)C,gelest_silanes,1,1,0,0
ALLYLTRIS(TRIMETHYLSILOXY)SILANE,340.15,1,C=CC[Si](O[Si](C)(C)C)(O[Si](C)(C)C)O[Si](C)(C)C,gelest_silanes,1,1,0,0
4-AMINOBUTYLTRIETHOXYSILANE,382.15,1,CCO[Si](CCCCN)(OCC)OCC,gelest_silanes,1,1,0,0
N-(2-AMINOETHYL)-3-AMINOPROPYLMETHYLDIMETHOXYSILANE,363.15,1,CO[Si](C)(CCCNCCN)OC,gelest_silanes,1,1,0,0
N-(2-AMINOETHYL)-3-AMINOPROPYLTRIETHOXYSILANE,421.15,1,CCO[Si](CCCNCCN)(OCC)OCC,gelest_silanes,1,1,0,0
N-(2-AMINOETHYL)-3-AMINOPROPYLTRIMETHOXYSILANE,423.15,1,CO[Si](CCCNCCN)(OC)OC,gelest_silanes,1,1,0,0
AMINOMETHYLTRIMETHYLSILANE,282.15,1,C[Si](C)(C)CN,gelest_silanes,1,1,0,0
m-AMINOPHENYLTRIMETHOXYSILANE,453.15,1,CO[Si](OC)(OC)c1cccc(N)c1,gelest_silanes,1,1,0,0
p-AMINOPHENYLTRIMETHOXYSILANE,453.15,1,CO[Si](OC)(OC)c1ccc(N)cc1,gelest_silanes,1,1,0,0
AMINOPHENYLTRIMETHOXYSILANE,453.15,1,CO[Si](OC)(OCN)c1ccccc1,gelest_silanes,1,1,0,0
3-AMINOPROPYLDIMETHYLETHOXYSILANE,346.15,1,CCO[Si](C)(C)CCCN,gelest_silanes,1,1,0,0
3-AMINOPROPYLTRIETHOXYSILANE,377.15,1,CCO[Si](CCCN)(OCC)OCC,gelest_silanes,1,1,0,0
3-AMINOPROPYLTRIMETHOXYSILANE,356.15,1,CO[Si](CCCN)(OC)OC,gelest_silanes,1,1,0,0
3-AMINOPROPYLTRIMETHYLSILANE,332.15,1,C[Si](C)(C)CCCN,gelest_silanes,1,1,0,0
3-AMINOPROPYLTRIS(METHOXYETHOXYETHOXY)SILANE,341.15,1,COCCOCCO[Si](CCCN)(OCCOCCOC)OCCOCCOC,gelest_silanes,1,1,0,0
(AZIDOMETHYL)TRIMETHYLSILANE,279.15,1,C[Si](C)(C)CN=[N+]=[N-],gelest_silanes,1,1,0,0
6-AZIDOSULFONYLHEXYLTRIETHOXYSILANE,387.15,1,CCO[Si](CCCCCCS(=O)(=O)N=[N+]=[N-])(OCC)OCC,gelest_silanes,1,1,0,0
N-BENZYLAMINOMETHYLTRIMETHYLSILANE,389.15,1,C[Si](C)(C)CNCc1ccccc1,gelest_silanes,1,1,0,0
BENZYLDIMETHYLCHLOROSILANE,346.15,1,C[Si](C)(Cl)Cc1ccccc1,gelest_silanes,1,1,0,0
BENZYLDIMETHYLSILANE,338.15,1,C[SiH](C)Cc1ccccc1,gelest_silanes,1,1,0,0
N-BENZYL-N-METHOXYMETHYL-N-(TRIMETHYLSILYLMETHYL)AMINE,339.15,1,COCN(Cc1ccccc1)C[Si](C)(C)C,gelest_silanes,1,1,0,0
ALLYLTRI-n-BUTYLTIN,376.15,1,C=CC[Sn](CCCC)(CCCC)CCCC,gelest_tin,0,1,1,0
BIS[BIS(TRIMETHYLSILYL)AMINO]TIN(II),329.15,1,C[Si](C)(C)N([Sn]N([Si](C)(C)C)[Si](C)(C)C)[Si](C)(C)C,gelest_tin,1,1,1,0
t-BUTYLTRI n-BUTYLTIN,375.15,1,CCCC[Sn](CCCC)(CCCC)C(C)(C)C,gelest_tin,0,1,1,0
CHLOROMETHYLTRIMETHYLTIN,312.15,1,C[Sn](C)(C)CCl,gelest_tin,0,1,1,0
DIALLYLDI-n-BUTYLTIN,374.15,1,C=CC[Sn](CC=C)(CCCC)CCCC,gelest_tin,0,1,1,0
DI-n-BUTYLDIACETOXYTIN,416.15,1,CCCC[Sn](CCCC)(OC(C)=O)OC(C)=O,gelest_tin,0,1,1,0
DI-n-BUTYLDI-n-BUTOXYTIN,389.15,1,CCCCO[Sn](CCCC)(CCCC)OCCCC,gelest_tin,0,1,1,0
DI-n-BUTYLDICHLOROTIN,441.15,1,CCCC[Sn](Cl)(Cl)CCCC,gelest_tin,0,1,1,0
DI-t-BUTYLDICHLOROTIN,386.15,1,CC(C)(C)[Sn](Cl)(Cl)C(C)(C)C,gelest_tin,0,1,1,0
DI-n-BUTYLDIMETHOXYTIN,383.15,1,CCCC[Sn](CCCC)(OC)OC,gelest_tin,0,1,1,0
DIMETHYLAMINOTRI-n-BUTYLTIN,388.15,1,CCCC[Sn](CCCC)(CCCC)N(C)C,gelest_tin,0,1,1,0
DIMETHYLAMINOTRIMETHYLTIN,274.15,1,CN(C)[Sn](C)(C)C,gelest_tin,0,1,1,0
DIOCTYLDICHLOROTIN,477.15,1,CCCCCCCC[Sn](Cl)(Cl)CCCCCCCC,gelest_tin,0,1,1,0
DIOCTYLDILAURYLTIN,471.15,1,CCCCCCCCCCCC[Sn](CCCCCCCC)(CCCCCCCC)CCCCCCCCCCCC,gelest_tin,0,1,1,0
DIVINYLDICHLOROTIN,477.15,1,C=C[Sn](Cl)(Cl)C=C,gelest_tin,0,1,1,0
1-ETHOXYVINYLTRI-n-BUTYLTIN,386.15,1,C=C(OCC)[Sn](CCCC)(CCCC)CCCC,gelest_tin,0,1,1,0
ETHYNYLTRI-n-BUTYLTIN,346.15,1,C#C[Sn](CCCC)(CCCC)CCCC,gelest_tin,0,1,1,0
PHENYLETHYNYLTRI-n-BUTYLTIN,386.15,1,CCCC[Sn](C#Cc1ccccc1)(CCCC)CCCC,gelest_tin,0,1,1,0
PHENYLTRI-n-BUTYLTIN,380.15,1,CCCC[Sn](CCCC)(CCCC)c1ccccc1,gelest_tin,0,1,1,0
PHENYLTHIOTRI-n-BUTYLTIN,377.15,1,CCCC[Sn](CCCC)(CCCC)Sc1ccccc1,gelest_tin,0,1,1,0
TETRAALLYLTIN,348.15,1,C=CC[Sn](CC=C)(CC=C)CC=C,gelest_tin,0,1,1,0
TETRABUTYLDILAURYLDISTANNOXANE,504.15,1,CCCCCCCCCCCC[Sn](CCCC)(CCCCCCCCCCCC)O[Sn](CCCC)(CCCC)CCCC,gelest_tin,0,1,1,0
TETRA-n-BUTYLTIN,274.15,1,CCCC[Sn](CCCC)(CCCC)CCCC,gelest_tin,0,1,1,0
TETRA-n-BUTYLTIN,380.15,1,CCCC[Sn](CCCC)(CCCC)CCCC,gelest_tin,0,1,1,0
TETRAETHYLTIN,326.15,1,CC[Sn](CC)(CC)CC,gelest_tin,0,1,1,0
TETRAKIS(DIETHYLAMINO)TIN,312.15,1,CCN(CC)[Sn](N(CC)CC)(N(CC)CC)N(CC)CC,gelest_tin,0,1,1,0
TETRAMETHYLTIN,261.15,1,C[Sn](C)(C)C,gelest_tin,0,1,1,0
TETRA-n-OCTYLTIN,367.15,1,CCCCCCCC[Sn](CCCCCCCC)(CCCCCCCC)CCCCCCCC,gelest_tin,0,1,1,0
TETRAPHENYLTIN,504.15,1,c1ccc([Sn](c2ccccc2)(c2ccccc2)c2ccccc2)cc1,gelest_tin,0,1,1,0
TETRAVINYLTIN,313.15,1,C=C[Sn](C=C)(C=C)C=C,gelest_tin,0,1,1,0
2-THIENYLTRI-n-BUTYLTIN,379.15,1,CCCC[Sn](CCCC)(CCCC)c1cccs1,gelest_tin,0,1,1,0
TRI-n-BUTYLACETOXYTIN,393.15,1,CCCCC(CCCC)(CCCC)C(=O)O[Sn],gelest_tin,0,1,1,0
TRI-n-BUTYLCHLOROTIN,393.15,1,CCCC[Sn](Cl)(CCCC)CCCC,gelest_tin,0,1,1,0
TRI-n-BUTYLETHOXYTIN,377.15,1,CCCC[Sn](CCCC)(CCCC)OCC,gelest_tin,0,1,1,0
TRI-n-BUTYLIODOTIN,386.15,1,CCCC[Sn](I)(CCCC)CCCC,gelest_tin,0,1,1,0
TRI-n-BUTYLMETHOXYTIN,371.15,1,CCCC[Sn](CCCC)(CCCC)OC,gelest_tin,0,1,1,0
TRI-n-BUTYLTIN HYDRIDE,313.15,1,CCCC[SnH](CCCC)CCCC,gelest_tin,0,1,1,0
TRICYCLOHEXYLTIN HYDRIDE,378.15,1,C1CCC([SnH](C2CCCCC2)C2CCCCC2)CC1,gelest_tin,0,1,1,0
TRIETHYLBROMOTIN,372.15,1,CC[Sn](Br)(CC)CC,gelest_tin,0,1,1,0
TRIMETHYLCHLOROTIN,370.15,1,C[Sn](C)(C)Cl,gelest_tin,0,1,1,0
TRIPHENYLCHLOROTIN,343.15,1,Cl[Sn](c1ccccc1)(c1ccccc1)c1ccccc1,gelest_tin,0,1,1,0
Acetaldehyde,235.15,1,CC=O,hazardous materials,0,0,0,0
Acetanilide,447.15,1,CC(=O)Nc1ccccc1,hazardous materials,0,0,0,0
Acetic acid,316.15,1,CC(=O)O,hazardous materials,0,0,0,1
Acetic anhydride,327.15,1,CC(=O)OC(C)=O,hazardous materials,0,0,0,0
Acetone,255.15,1,CC(C)=O,hazardous materials,0,0,0,0
Acetone cyanohydrin,347.15,1,CC(C)(O)C#N,hazardous materials,0,0,0,0
Acetonitrile,279.15,1,CC#N,hazardous materials,0,0,0,0
Acetyl chloride,277.15,1,CC(=O)Cl,hazardous materials,0,0,0,0
Acetyl peroxide,386.15,1,CC(=O)OOC(C)=O,hazardous materials,0,0,0,0
Acrolein,247.15,1,C=CC=O,hazardous materials,0,0,0,0
Acrylic acid,325.15,1,C=CC(=O)O,hazardous materials,0,0,0,1
Acrylonitrile,273.15,1,C=CC#N,hazardous materials,0,0,0,0
Adiponitrile,366.15,1,N#CCCCCC#N,hazardous materials,0,0,0,0
Allyl acetate,294.15,1,C=CCOC(C)=O,hazardous materials,0,0,0,0
Allyl alcohol,294.15,1,C=CCO,hazardous materials,0,0,0,0
Allyl amine,244.15,1,C=CCN,hazardous materials,0,0,0,0
Allyl bromide,272.15,1,C=CCBr,hazardous materials,0,0,0,0
Allyl chloride,241.15,1,C=CCCl,hazardous materials,0,0,0,0
Allyl chloroformate,304.15,1,C=CCOC(=O)Cl,hazardous materials,0,0,0,0
Allyl glycidyl ether,330.15,1,C=CCOCC1CO1,hazardous materials,0,0,0,0
Aminoethylethanol amine,402.15,1,NCCC(O)CN,hazardous materials,0,0,0,0
iso-Amyl acetate,296.15,1,CC(=O)OCCC(C)C,hazardous materials,0,0,0,0
sec-Amyl acetate,305.15,1,CCCC(C)OC(C)=O,hazardous materials,0,0,0,0
iso-Amyl alcohol,316.15,1,CC(C)CCO,hazardous materials,0,0,0,0
tert-Amyl alcohol,292.15,1,CCC(C)(C)O,hazardous materials,0,0,0,0
Amylamine,280.15,1,CCCCCN,hazardous materials,0,0,0,0
iso-Amyl formate,299.15,1,CC(C)CCOC=O,hazardous materials,0,0,0,0
Amyl mercaptan,291.15,1,CCCCCS,hazardous materials,0,0,0,0
iso-Amyl nitrate,325.15,1,CC(C)CCO[N+](=O)[O-],hazardous materials,0,0,0,0
Amyl nitrite,283.15,1,CCCCCON=O,hazardous materials,0,0,0,0
Aniline,343.15,1,Nc1ccccc1,hazardous materials,0,0,0,0
o-Anisaldehyde,391.15,1,COc1ccccc1C=O,hazardous materials,0,0,0,0
Anisole,325.15,1,COc1ccccc1,hazardous materials,0,0,0,0
Anthracene,394.15,1,c1ccc2cc3ccccc3cc2c1,hazardous materials,0,0,0,0
Anthraquinone,458.15,1,O=C1c2ccccc2C(=O)c2ccccc21,hazardous materials,0,0,0,0
Aziridine,262.15,1,C1CN1,hazardous materials,0,0,0,0
Benzaldehyde,337.15,1,O=Cc1ccccc1,hazardous materials,0,0,0,0
Benzene,262.15,1,c1ccccc1,hazardous materials,0,0,0,0
Benzonitrile,358.15,1,N#Cc1ccccc1,hazardous materials,0,0,0,0
Benzotrifluoride,285.15,1,FC(F)(F)c1ccccc1,hazardous materials,0,0,0,0
Benzoyl chloride,345.15,1,O=C(Cl)c1ccccc1,hazardous materials,0,0,0,0
Benzyl acetate,375.15,1,CC(=O)OCc1ccccc1,hazardous materials,0,0,0,0
Benzyl alcohol,374.15,1,OCc1ccccc1,hazardous materials,0,0,0,0
Benzylamine,336.15,1,NCc1ccccc1,hazardous materials,0,0,0,0
Benzyl benzoate,421.15,1,O=C(OCc1ccccc1)c1ccccc1,hazardous materials,0,0,0,0
Benzyl chloride,340.15,1,ClCc1ccccc1,hazardous materials,0,0,0,0
Benzyl mercaptan,343.15,1,SCc1ccccc1,hazardous materials,0,0,0,0
Bicyclohexyl,347.15,1,C1CCC(C2CCCCC2)CC1,hazardous materials,0,0,0,0
Biphenyl,386.15,1,c1ccc(-c2ccccc2)cc1,hazardous materials,0,0,0,0
Bromobenzene,324.15,1,Brc1ccccc1,hazardous materials,0,0,0,0
o-Bromotoluene,352.15,1,Cc1ccccc1Br,hazardous materials,0,0,0,0
n-Butane,213.15,1,CCCC,hazardous materials,0,0,0,0
1-Butene,193.15,1,C=CCC,hazardous materials,0,0,0,0
n-Butyl acetate,300.15,1,CCCCOC(C)=O,hazardous materials,0,0,0,0
iso-Butyl acetate,291.15,1,CC(=O)OCC(C)C,hazardous materials,0,0,0,0
sec-Butyl acetate,304.15,1,CCC(C)OC(C)=O,hazardous materials,0,0,0,0
n-Butyl alcohol,302.15,1,CCCCO,hazardous materials,0,0,0,0
iso-Butyl alcohol,301.15,1,CC(C)CO,hazardous materials,0,0,0,0
sec-Butyl alcohol,297.15,1,CCC(C)O,hazardous materials,0,0,0,0
tert-Butyl alcohol,283.15,1,CC(C)(C)O,hazardous materials,0,0,0,0
Butylamine,261.15,1,CCCCN,hazardous materials,0,0,0,0
iso-Butylamine,264.15,1,CC(C)CN,hazardous materials,0,0,0,0
n-Butyl benzene,344.15,1,CCCCc1ccccc1,hazardous materials,0,0,0,0
iso-Butyl benzene,325.15,1,CC(C)Cc1ccccc1,hazardous materials,0,0,0,0
n-Butyl bromide,291.15,1,CCCCBr,hazardous materials,0,0,0,0
n-Butyl chloride,280.15,1,CCCCCl,hazardous materials,0,0,0,0
"1,3-Butylene glycol",394.15,1,CC(O)CCO,hazardous materials,0,0,0,0
"2,3-Butylene glycol",358.15,1,CC(O)C(C)O,hazardous materials,0,0,0,0
n-Butyl formate,291.15,1,CCCCOC=O,hazardous materials,0,0,0,0
Butyl lactate,344.15,1,CCCCOC(=O)C(C)O,hazardous materials,0,0,0,0
Butyl mercaptan,275.15,1,CCCCS,hazardous materials,0,0,0,0
Butyl methacrylate,325.15,1,C=C(C)C(=O)OCCCC,hazardous materials,0,0,0,0
Isobutyl methyl ketone,290.15,1,CC(=O)CC(C)C,hazardous materials,0,0,0,0
tert-Butyl perbenzoate,361.15,1,CC(C)(C)OOC(=O)c1ccccc1,hazardous materials,0,0,0,0
Butyl vinyl ether,264.15,1,C=COCCCC,hazardous materials,0,0,0,0
n-Butyraldehyde,266.45,1,CCCC=O,hazardous materials,0,0,0,0
n-Butyric acid,339.15,1,CCCC(=O)O,hazardous materials,0,0,0,1
n-Butyric anhydride,361.15,1,CCCC(=O)OC(=O)CCC,hazardous materials,0,0,0,0
2-Butyrolactone,371.15,1,CCC1OC1=O,hazardous materials,0,0,0,0
n-Butyronitrile,299.15,1,CCCC#N,hazardous materials,0,0,0,0
Camphor,339.15,1,CC12CCC(CC1=O)C2(C)C,hazardous materials,0,0,0,0
Caproic acid,375.15,1,CCCCCC(=O)O,hazardous materials,0,0,0,1
Caprylaldehyde,325.15,1,CCCCCCCC=O,hazardous materials,0,0,0,0
Carbon disulphide,243.15,1,S=C=S,hazardous materials,0,0,0,0
Chloroacetaldehyde,361.15,1,O=CCCl,hazardous materials,0,0,0,0
Chlorobenzene,302.15,1,Clc1ccccc1,hazardous materials,0,0,0,0
"1-Chloro-2,4-dinitrobenzene",467.15,1,O=[N+]([O-])c1ccc(Cl)c([N+](=O)[O-])c1,hazardous materials,0,0,0,0
Chloronaphthalene,405.15,1,Clc1cccc2ccccc12,hazardous materials,0,0,0,0
1-Chloro-1-nitropropane,335.15,1,CCC(Cl)[N+](=O)[O-],hazardous materials,0,0,0,0
o-Chlorophenol,337.15,1,Oc1ccccc1Cl,hazardous materials,0,0,0,0
p-Chlorophenol,394.15,1,Oc1ccc(Cl)cc1,hazardous materials,0,0,0,0
Chlorotrifluoroethylene,246.15,1,FC(F)=C(F)Cl,hazardous materials,0,0,0,0
Cinnamaldehyde,322.15,1,O=CC=Cc1ccccc1,hazardous materials,0,0,0,0
m-Cresol,367.15,1,Cc1cccc(O)c1,hazardous materials,0,0,0,0
o-Cresol,354.15,1,Cc1ccccc1O,hazardous materials,0,0,0,0
p-Cresol,367.15,1,Cc1ccc(O)cc1,hazardous materials,0,0,0,0
Crotonaldehyde,286.15,1,C/C=C/C=O,hazardous materials,0,0,0,0
Cumene,317.15,1,CC(C)c1ccccc1,hazardous materials,0,0,0,0
Cumene hydroperoxide,352.15,1,CC(C)c1ccccc1.[O-]O,hazardous materials,0,0,0,0
Cyclohexane,253.15,1,C1CCCCC1,hazardous materials,0,0,0,0
Cyclohexanol,341.15,1,OC1CCCCC1,hazardous materials,0,0,0,0
Cyclohexanone,317.15,1,O=C1CCCCC1,hazardous materials,0,0,0,0
Cyclohexylamine,305.15,1,NC1CCCCC1,hazardous materials,0,0,0,0
Cyclohexylbenzene,372.15,1,c1ccc(C2CCCCC2)cc1,hazardous materials,0,0,0,0