compound,flashpoint,pure substance,smiles,source,is_silicon,is_metallic,is_tin,is_acid
TETRAPHENYLETHYLENE,538.0,1,c1ccc(C(=C(c2ccccc2)c2ccccc2)c2ccccc2)cc1,didier14,0,0,0,0
4-ISOBUTYLSTYRENE,373.0,1,C=Cc1ccc(CC(C)C)cc1,didier14,0,0,0,0
tert-BUTYL ETHYL ETHER,254.0,1,CCOC(C)(C)C,didier14,0,0,0,0
n-PENTYL FORMATE,300.0,1,CCCCCOC=O,didier14,0,0,0,0
n-TRIDECANOIC acid,438.0,1,CCCCCCCCCCCCC(=O)O,didier14,0,0,0,1
n-TRICOSANE,467.0,1,CCCCCCCCCCCCCCCCCCCCCCC,didier14,0,0,0,0
FORMIC acid,321.1,1,O=CO,didier14,0,0,0,1
n-PROPYL ISOBUTYRATE,302.0,1,CCCOC(=O)C(C)C,didier14,0,0,0,0
cis-STILBENE,394.0,1,C(=C\c1ccccc1)\c1ccccc1,didier14,0,0,0,0
2-ETHYL-2-HEXENAL,341.1,1,CCCC=C(C=O)CC,didier14,0,0,0,0
n-NONADECANOIC acid,483.0,1,CCCCCCCCCCCCCCCCCCC(=O)O,didier14,0,0,0,1
n-TETRACOSANE,475.0,1,CCCCCCCCCCCCCCCCCCCCCCCC,didier14,0,0,0,0
ISOPENTYL ISOVALERATE,345.0,1,CC(C)CCOC(=O)CC(C)C,didier14,0,0,0,0
sec-BUTENYL ACETATE,288.0,1,C=C(CC)OC(C)=O,didier14,0,0,0,0
n-UNDECYLBENZENE,417.0,1,CCCCCCCCCCCc1ccccc1,didier14,0,0,0,0
4-METHYL-trans-2-PENTENE,239.0,1,C/C=C/C(C)C,didier14,0,0,0,0
ACETONE,255.0,1,CC(C)=O,didier14,0,0,0,0
1-HEPTADECENE,408.0,1,C=CCCCCCCCCCCCCCCC,didier14,0,0,0,0
METHYL sec-BUTYL ETHER,244.0,1,CCC(C)OC,didier14,0,0,0,0
DI-sec-BUTYL ETHER,288.0,1,CCC(C)OC(C)CC,didier14,0,0,0,0
ISOPROPYL ACRYLATE,281.0,1,C=CC(=O)OC(C)C,didier14,0,0,0,0
4-METHYL-1-PENTENE,234.0,1,C=CCC(C)C,didier14,0,0,0,0
4-METHYL-cis-2-PENTENE,237.0,1,C/C=C\C(C)C,didier14,0,0,0,0
VINYL FORMATE,254.0,1,C=COC=O,didier14,0,0,0,0
DI-n-PENTYL ETHER,330.1,1,CCCCCOCCCCC,didier14,0,0,0,0
1-PHENYL-2-PROPANOL,358.1,1,CC(O)Cc1ccccc1,didier14,0,0,0,0
PENTAMETHYLBENZENE,364.1,1,Cc1cc(C)c(C)c(C)c1C,didier14,0,0,0,0
"2,3-DIMETHYLOCTANE",309.0,1,CCCCCC(C)C(C)C,didier14,0,0,0,0
trans-2-DODECENE,351.0,1,C/C=C/CCCCCCCCC,didier14,0,0,0,0
cis-2-DODECENE,351.0,1,C/C=C\CCCCCCCCC,didier14,0,0,0,0
UNDECYLAMINE,365.1,1,CCCCCCCCCCCN,didier14,0,0,0,0
p-tert-BUTYL ETHYLBENZENE,343.0,1,CCc1ccc(C(C)(C)C)cc1,didier14,0,0,0,0
1-(4-ETHYLPHENYL)-2-PHENYLETHANE,404.0,1,CCc1ccc(CCc2ccccc2)cc1,didier14,0,0,0,0
trans-2-PENTADECENE,396.0,1,C/C=C/CCCCCCCCCCCC,didier14,0,0,0,0
METHYL CHLORIDE,205.0,1,CCl,didier14,0,0,0,0
METHYL MERCAPTAN,217.0,1,CS,didier14,0,0,0,0
ETHYL CHLORIDE,223.2,1,CCCl,didier14,0,0,0,0
VINYL CHLORIDE,195.0,1,C=CCl,didier14,0,0,0,0
ETHYLAMINE,228.0,1,CCN,didier14,0,0,0,0
ETHYL MERCAPTAN,225.0,1,CCS,didier14,0,0,0,0
m-ETHYLSTYRENE,333.0,1,C=Cc1cccc(CC)c1,didier14,0,0,0,0
ISOBUTANE,190.2,1,CC(C)C,didier14,0,0,0,0
ACETYL CHLORIDE,278.0,1,CC(=O)Cl,didier14,0,0,0,0
o-ETHYLSTYRENE,331.0,1,C=Cc1ccccc1CC,didier14,0,0,0,0
tert-BUTYLAMINE,264.1,1,CC(C)(C)N,didier14,0,0,0,0
"2,2-DIMETHYLBUTANE",225.0,1,CCC(C)(C)C,didier14,0,0,0,0
"2,2-DIMETHYL-1-PROPANOL",300.0,1,CC(C)(C)CO,didier14,0,0,0,0
NEOPENTANOIC acid,336.1,1,CC(C)(C)C(=O)O,didier14,0,0,0,1
2-ETHYL-1-BUTENE,247.2,1,C=C(CC)CC,didier14,0,0,0,0
tert-BUTYL FORMATE,264.1,1,CC(C)(C)OC=O,didier14,0,0,0,0
2-METHYL-1-PENTENE,241.0,1,C=C(C)CCC,didier14,0,0,0,0
"2,5-DIMETHYL-2,4-HEXADIENE",297.1,1,CC(C)=CC=C(C)C,didier14,0,0,0,0
cis-3-HEXENE,245.0,1,CC/C=C\CC,didier14,0,0,0,0
cis-3-HEPTENE,264.0,1,CC/C=C\CCC,didier14,0,0,0,0
cis-1-PROPENYLBENZENE,311.0,1,C/C=C\c1ccccc1,didier14,0,0,0,0
cis-2-HEXENE,247.0,1,C/C=C\CCC,didier14,0,0,0,0
alpha-METHYLBENZYL ALCOHOL FORMATE,349.0,1,CC(OC=O)c1ccccc1,didier14,0,0,0,0
2-METHYL OCTANAL,328.0,1,CCCCCCC(C)C=O,didier14,0,0,0,0
ISOPROPYL ISOBUTYL ETHER,268.0,1,CC(C)COC(C)C,didier14,0,0,0,0
ISOPENTANE,217.2,1,CCC(C)C,didier14,0,0,0,0
ISOPRENE,219.3,1,C=CC(=C)C,didier14,0,0,0,0
2-METHYLPROPANAL,266.0,1,CC(C)C=O,didier14,0,0,0,0
METHACROLEIN,275.1,1,C=C(C)C=O,didier14,0,0,0,0
METHYL ETHYL KETONE,267.0,1,CCC(C)=O,didier14,0,0,0,0
"1,1-DICHLOROPROPANE",280.0,1,CCC(Cl)Cl,didier14,0,0,0,0
PROPIONIC acid,328.0,1,CCC(=O)O,didier14,0,0,0,1
ACRYLIC acid,324.0,1,C=CC(=O)O,didier14,0,0,0,1
"2,3-DIMETHYLBUTANE",244.0,1,CC(C)C(C)C,didier14,0,0,0,0
METHACRYLIC acid,340.0,1,C=C(C)C(=O)O,didier14,0,0,0,1
p-tert-AMYLPHENOL,384.0,1,CCC(C)(C)c1ccc(O)cc1,didier14,0,0,0,0
METHYL METHACRYLATE,284.1,1,C=C(C)C(=O)OC,didier14,0,0,0,0
METHYL ISOPROPENYL KETONE,294.1,1,C=C(C)C(C)=O,didier14,0,0,0,0
1-UNDECENE,327.0,1,C=CCCCCCCCCC,didier14,0,0,0,0
trans-1-PROPENYLBENZENE,325.1,1,C/C=C/c1ccccc1,didier14,0,0,0,0
4-ETHYL-m-XYLENE,330.0,1,CCc1ccc(C)cc1C,didier14,0,0,0,0
"1,2,4-TRIETHYLBENZENE",353.1,1,CCc1ccc(CC)c(CC)c1,didier14,0,0,0,0
HEXAMETHYLBENZENE,387.0,1,Cc1c(C)c(C)c(C)c(C)c1C,didier14,0,0,0,0
2-ETHYL BUTYRIC acid,360.0,1,CCC(CC)C(=O)O,didier14,0,0,0,1
DIPHENYL DISULFIDE,436.0,1,c1ccc(SSc2ccccc2)cc1,didier14,0,0,0,0
THYMOL,374.1,1,Cc1ccc(C(C)C)c(O)c1,didier14,0,0,0,0
ETHYL tert-PENTYL ETHER,268.0,1,CCOC(C)(C)CC,didier14,0,0,0,0
m-TERPHENYL,464.0,1,c1ccc(-c2cccc(-c3ccccc3)c2)cc1,didier14,0,0,0,0
BIPHENYL,386.0,1,c1ccc(-c2ccccc2)cc1,didier14,0,0,0,0
2-METHYLHEXANAL,305.0,1,CCCCC(C)C=O,didier14,0,0,0,0
n-PROPYL ACRYLATE,293.0,1,C=CC(=O)OCCC,didier14,0,0,0,0
"trans-2-METHYL-1,3-PENTADIENE",253.2,1,C=C(C)/C=C/C,didier14,0,0,0,0
"N,N-DIMETHYL-n-BUTYLAMINE",270.1,1,CCCCN(C)C,didier14,0,0,0,0
3-ETHYL-o-XYLENE,338.1,1,CCc1cccc(C)c1C,didier14,0,0,0,0
5-ETHYL-m-XYLENE,326.0,1,CCc1cc(C)cc(C)c1,didier14,0,0,0,0
4-ETHYL-o-XYLENE,331.0,1,CCc1ccc(C)c(C)c1,didier14,0,0,0,0
2-PHENYLPROPIONALDEHYDE,342.0,1,CC(C=O)c1ccccc1,didier14,0,0,0,0
1-PHENYL-1-PROPANOL,363.1,1,CCC(O)c1ccccc1,didier14,0,0,0,0
METHYL BENZOATE,355.1,1,COC(=O)c1ccccc1,didier14,0,0,0,0
ETHYL BENZOATE,357.1,1,CCOC(=O)c1ccccc1,didier14,0,0,0,0
o-CHLOROTOLUENE,324.0,1,Cc1ccccc1Cl,didier14,0,0,0,0
"3,4-XYLENOL",376.0,1,Cc1ccc(O)cc1C,didier14,0,0,0,0
ALLYL METHACRYLATE,306.1,1,C=CCOC(=O)C(=C)C,didier14,0,0,0,0
3-METHYLPENTANE,241.0,1,CCC(C)CC,didier14,0,0,0,0
2-METHYLBUTYRALDEHYDE,271.0,1,CCC(C)C=O,didier14,0,0,0,0
METHYL ACRYLATE,270.0,1,C=CC(=O)OC,didier14,0,0,0,0
ETHYL METHACRYLATE,293.1,1,C=C(C)C(=O)OCC,didier14,0,0,0,0
ISOBUTYL ISOBUTYRATE,311.1,1,CC(C)COC(=O)C(C)C,didier14,0,0,0,0
ISOBUTYL METHACRYLATE,314.1,1,C=C(C)C(=O)OCC(C)C,didier14,0,0,0,0
n-BUTYL METHACRYLATE,322.0,1,C=C(C)C(=O)OCCCC,didier14,0,0,0,0
BENZOTRICHLORIDE,354.0,1,ClC(Cl)(Cl)c1ccccc1,didier14,0,0,0,0
p-tert-BUTYLPHENOL,386.0,1,CC(C)(C)c1ccc(O)cc1,didier14,0,0,0,0
CUMENE,304.1,1,CC(C)c1ccccc1,didier14,0,0,0,0
alpha-METHYLSTYRENE,313.1,1,C=C(C)c1ccccc1,didier14,0,0,0,0
ACETOPHENONE,355.4,1,CC(=O)c1ccccc1,didier14,0,0,0,0
BENZOYL CHLORIDE,345.0,1,O=C(Cl)c1ccccc1,didier14,0,0,0,0
m-DIISOPROPYLBENZENE,349.8,1,CC(C)c1cccc(C(C)C)c1,didier14,0,0,0,0
METHYL para-TOLUATE,363.7,1,COC(=O)c1ccc(C)cc1,didier14,0,0,0,0
p-CYMENE,320.0,1,Cc1ccc(C(C)C)cc1,didier14,0,0,0,0
p-CHLORONITROBENZENE,400.1,1,O=[N+]([O-])c1ccc(Cl)cc1,didier14,0,0,0,0
p-NITROANILINE,472.1,1,Nc1ccc([N+](=O)[O-])cc1,didier14,0,0,0,0
p-DINITROBENZENE,433.0,1,O=[N+]([O-])c1ccc([N+](=O)[O-])cc1,didier14,0,0,0,0
CYCLOPENTYLAMINE,290.1,1,NC1CCCC1,didier14,0,0,0,0
ETHYLBENZENE,288.1,1,CCc1ccccc1,didier14,0,0,0,0
N-METHYLCYCLOHEXYLAMINE,302.1,1,CNC1CCCCC1,didier14,0,0,0,0
N-METHYLANILINE,351.0,1,CNc1ccccc1,didier14,0,0,0,0
PHENYLHYDRAZINE,362.1,1,NNc1ccccc1,didier14,0,0,0,0
DICYCLOHEXYLAMINE,377.0,1,C1CCC(NC2CCCCC2)CC1,didier14,0,0,0,0
DIPHENYL ETHER,369.0,1,c1ccc(Oc2ccccc2)cc1,didier14,0,0,0,0
DI(2-ETHYLHEXYL)ADIPATE,466.0,1,CCCCC(CC)COC(=O)CCCCC(=O)OCC(CC)CCCC,didier14,0,0,0,0
n-PROPYLBENZENE,303.1,1,CCCc1ccccc1,didier14,0,0,0,0
N-ETHYLANILINE,358.1,1,CCNc1ccccc1,didier14,0,0,0,0
ACETANILIDE,446.1,1,CC(=O)Nc1ccccc1,didier14,0,0,0,0
4-METHOXYPHENYLACETIC acid,437.0,1,COc1ccc(CC(=O)O)cc1,didier14,0,0,0,1
2-ETHYL-1-HEXANOL,346.0,1,CCCCC(CC)CO,didier14,0,0,0,0
p-DIETHYLBENZENE,329.1,1,CCc1ccc(CC)cc1,didier14,0,0,0,0
"1,4-CYCLOHEXANEDIMETHANOL",434.1,1,OCC1CCC(CO)CC1,didier14,0,0,0,0
2-METHYL-1-PENTANOL,319.0,1,CCCC(C)CO,didier14,0,0,0,0
METHYL CYANOACETATE,383.1,1,COC(=O)CC#N,didier14,0,0,0,0
ETHYL PROPIONATE,285.0,1,CCOC(=O)CC,didier14,0,0,0,0
ETHYLCHLOROACETATE,311.0,1,CCOC(=O)CCl,didier14,0,0,0,0
METHYL ACETOACETATE,343.0,1,COC(=O)CC(C)=O,didier14,0,0,0,0
DIETHYL MALONATE,366.1,1,CCOC(=O)CC(=O)OCC,didier14,0,0,0,0
ETHYL n-BUTYRATE,297.1,1,CCCC(=O)OCC,didier14,0,0,0,0
ETHYL CYANOACETATE,383.1,1,CCOC(=O)CC#N,didier14,0,0,0,0
METHYL DIETHANOLAMINE,399.8,1,CN(CCO)CCO,didier14,0,0,0,0
n-PROPYL n-BUTYRATE,305.0,1,CCCOC(=O)CCC,didier14,0,0,0,0
"2,4-XYLENOL",368.1,1,Cc1ccc(O)c(C)c1,didier14,0,0,0,0
DIBUTYL MALEATE,413.0,1,CCCCOC(=O)/C=C\C(=O)OCCCC,didier14,0,0,0,0
3-HEPTANONE,310.1,1,CCCCC(=O)CC,didier14,0,0,0,0
n-PROPYL PROPIONATE,292.1,1,CCCOC(=O)CC,didier14,0,0,0,0
p-XYLENE,298.1,1,Cc1ccc(C)cc1,didier14,0,0,0,0
p-CRESOL,368.0,1,Cc1ccc(O)cc1,didier14,0,0,0,0
p-DICHLOROBENZENE,339.0,1,Clc1ccc(Cl)cc1,didier14,0,0,0,0
p-CHLOROANILINE,386.0,1,Nc1ccc(Cl)cc1,didier14,0,0,0,0
p-CHLOROPHENOL,389.0,1,Oc1ccc(Cl)cc1,didier14,0,0,0,0
p-TOLUIDINE,360.0,1,Cc1ccc(N)cc1,didier14,0,0,0,0
p-PHENYLENEDIAMINE,428.7,1,Nc1ccc(N)cc1,didier14,0,0,0,0
ISOBUTYL ACRYLATE,304.3,1,C=CC(=O)OCC(C)C,didier14,0,0,0,0
DIMETHYL SUCCINATE,358.1,1,COC(=O)CCC(=O)OC,didier14,0,0,0,0
3-METHYL-3-ETHYLPENTANE,276.0,1,CCC(C)(CC)CC,didier14,0,0,0,0
"3,3-DIETHYLPENTANE",294.0,1,CCC(CC)(CC)CC,didier14,0,0,0,0
"2,4-DIMETHYL-3-ETHYLPENTANE",288.0,1,CCC(C(C)C)C(C)C,didier14,0,0,0,0
"1,3-BUTADIENE",197.2,1,C=CC=C,didier14,0,0,0,0
n-PROPYL MERCAPTAN,253.2,1,CCCS,didier14,0,0,0,0
"1,2-DICHLOROETHANE",286.0,1,ClCCCl,didier14,0,0,0,0
2-CHLOROETHANOL,313.7,1,OCCCl,didier14,0,0,0,0
"2,2,4,4-TETRAMETHYLPENTANE",276.0,1,CC(C)(C)CC(C)(C)C,didier14,0,0,0,0
PROPIONITRILE,275.0,1,CCC#N,didier14,0,0,0,0
"2,2-DIMETHYLHEPTANE",297.0,1,CCCCCC(C)(C)C,didier14,0,0,0,0
ETHYLENEDIAMINE,306.1,1,NCCN,didier14,0,0,0,0
ETHYLENE GLYCOL,383.1,1,OCCO,didier14,0,0,0,0
"2,7-DIMETHYLOCTANE",306.0,1,CC(C)CCCCC(C)C,didier14,0,0,0,0
GLYOXAL,262.0,1,O=CC=O,didier14,0,0,0,0
CHLOROMETHYL METHYL ETHER,255.0,1,COCCl,didier14,0,0,0,0
HEXYLENE GLYCOL,366.0,1,OCCCCCCO,didier14,0,0,0,0
n-HEXYLBENZENE,353.1,1,CCCCCCc1ccccc1,didier14,0,0,0,0
n-HEPTYLBENZENE,368.1,1,CCCCCCCc1ccccc1,didier14,0,0,0,0
2-PENTANONE,280.0,1,CCCC(C)=O,didier14,0,0,0,0
"1,3-BUTANEDIOL",382.0,1,CC(O)CCO,didier14,0,0,0,0
n-BUTYRIC acid,345.0,1,CCCC(=O)O,didier14,0,0,0,1
PROPYLENE GLYCOL MONOMETHYL ETHER,305.0,1,COCC(C)O,didier14,0,0,0,0
1-NITROPROPANE,306.1,1,CCC[N+](=O)[O-],didier14,0,0,0,0
METHYL ISOBUTYL KETONE,286.1,1,CC(=O)CC(C)C,didier14,0,0,0,0
4-METHYL-2-PENTANOL,314.0,1,CC(C)CC(C)O,didier14,0,0,0,0
DIISOPROPYLAMINE,266.1,1,CC(C)NC(C)C,didier14,0,0,0,0
DIISOPROPYL ETHER,245.0,1,CC(C)OC(C)C,didier14,0,0,0,0
m-XYLENE,298.1,1,Cc1cccc(C)c1,didier14,0,0,0,0
m-CRESOL,368.0,1,Cc1cccc(O)c1,didier14,0,0,0,0
m-CHLOROANILINE,378.0,1,Nc1cccc(Cl)c1,didier14,0,0,0,0
m-CHLOROPHENOL,364.0,1,Oc1cccc(Cl)c1,didier14,0,0,0,0
m-TOLUIDINE,359.1,1,Cc1cccc(N)c1,didier14,0,0,0,0
m-PHENYLENEDIAMINE,411.1,1,Nc1cccc(N)c1,didier14,0,0,0,0
"1,3-BENZENEDIOL",400.0,1,Oc1cccc(O)c1,didier14,0,0,0,0
"2,6-DIMETHYLPYRIDINE",306.0,1,Cc1cccc(C)n1,didier14,0,0,0,0
DIMETHYLMALONATE,363.1,1,CC(C)(C(=O)[O-])C(=O)[O-],didier14,0,0,0,0
PROPYLENE GLYCOL MONOMETHYL ETHER ACETATE,316.0,1,COCC(C)OC(C)=O,didier14,0,0,0,0
MESITYLENE,317.6,1,Cc1cc(C)cc(C)c1,didier14,0,0,0,0
DIISOBUTYL KETONE,322.1,1,CC(C)CC(=O)CC(C)C,didier14,0,0,0,0
METHYLCYCLOHEXANE,267.1,1,CC1CCCCC1,didier14,0,0,0,0
TOLUENE,277.1,1,Cc1ccccc1,didier14,0,0,0,0
4-METHYLPYRIDINE,329.1,1,Cc1ccncc1,didier14,0,0,0,0
CYCLOHEXYLAMINE,304.1,1,NC1CCCCC1,didier14,0,0,0,0
CYCLOHEXANOL,341.0,1,OC1CCCCC1,didier14,0,0,0,0
PHENOL,353.0,1,Oc1ccccc1,didier14,0,0,0,0
3-METHYLPYRIDINE,309.1,1,Cc1cccnc1,didier14,0,0,0,0
2-METHYLPYRIDINE,299.1,1,Cc1ccccn1,didier14,0,0,0,0
n-BUTYL n-BUTYRATE,326.5,1,CCCCOC(=O)CCC,didier14,0,0,0,0
DIBUTYL SEBACATE,451.1,1,CCCCOC(=O)CCCCCCCCC(=O)OCCCC,didier14,0,0,0,0
n-PENTANOIC acid,358.1,1,CCCCC(=O)O,didier14,0,0,0,1
n-PROPYL ACETATE,288.0,1,CCCOC(C)=O,didier14,0,0,0,0
n-PENTANE,233.2,1,CCCCC,didier14,0,0,0,0
1-PENTENE,219.0,1,C=CCCC,didier14,0,0,0,0
n-BUTYL CHLORIDE,263.8,1,CCCCCl,didier14,0,0,0,0
n-BUTYRONITRILE,289.1,1,CCCC#N,didier14,0,0,0,0
"1,3-PROPANEDIAMINE",321.1,1,NCCCN,didier14,0,0,0,0
MALONONITRILE,385.1,1,N#CCC#N,didier14,0,0,0,0
HYDRACRYLONITRILE,383.1,1,N#CCCO,didier14,0,0,0,0
n-BUTYL MERCAPTAN,274.8,1,CCCCS,didier14,0,0,0,0
METHYLETHANOLAMINE,345.1,1,CC(O)CN,didier14,0,0,0,0
2-METHOXYETHANOL,312.0,1,COCCO,didier14,0,0,0,0
METHYLAL,255.0,1,COCOC,didier14,0,0,0,0
DIETHYLAMINE,234.2,1,CCNCC,didier14,0,0,0,0
DI-t-BUTYL PEROXIDE,291.0,1,CC(C)(C)OOC(C)(C)C,didier14,0,0,0,0
5-METHYL-2-HEXANONE,309.1,1,CC(=O)CCC(C)C,didier14,0,0,0,0
SUCCINIC acid,489.0,1,O=C(O)CCC(=O)O,didier14,0,0,0,1
FUMARIC acid,471.0,1,O=C(O)/C=C/C(=O)O,didier14,0,0,0,1
ISOBUTYL ACETATE,291.0,1,CC(=O)OCC(C)C,didier14,0,0,0,0
DIHEXYL ADIPATE,464.0,1,CCCCCCOC(=O)CCCCC(=O)OCCCCCC,didier14,0,0,0,0
METHYL DECANOATE,367.1,1,CCCCCCCCCC(=O)OC,didier14,0,0,0,0
2-HEPTANONE,312.1,1,CCCCCC(C)=O,didier14,0,0,0,0
n-HEXANE,251.5,1,CCCCCC,didier14,0,0,0,0
"1,4-DICHLOROBUTANE",313.1,1,ClCCCCCl,didier14,0,0,0,0
"1,4-DICHLORO-trans-2-BUTENE",326.1,1,ClC/C=C/CCl,didier14,0,0,0,0
n-PENTYLAMINE,272.1,1,CCCCCN,didier14,0,0,0,0
SUCCINONITRILE,405.0,1,N#CCCC#N,didier14,0,0,0,0
PENTANAL,285.1,1,CCCCC=O,didier14,0,0,0,0
"1,4-BUTANEDIOL",407.1,1,OCCCCO,didier14,0,0,0,0
n-PENTYL MERCAPTAN,291.0,1,CCCCCS,didier14,0,0,0,0
3-METHOXYPROPIONITRILE,338.1,1,COCCC#N,didier14,0,0,0,0
"1,2-DIMETHOXYETHANE",271.5,1,COCCOC,didier14,0,0,0,0
2-ETHOXYETHANOL,316.0,1,CCOCCO,didier14,0,0,0,0
CYCLOHEXANE,253.2,1,C1CCCCC1,didier14,0,0,0,0
PYRIDINE,293.1,1,c1ccncc1,didier14,0,0,0,0
GLUTARIC acid,482.0,1,O=C(O)CCCC(=O)O,didier14,0,0,0,1
DIGLYCOLIC acid,500.0,1,O=C(O)COCC(=O)O,didier14,0,0,0,1
SQUALANE,490.0,1,CC(C)CCCC(C)CCCC(C)CCCCC(C)CCCC(C)CCCC(C)C,didier14,0,0,0,0
2-OCTANONE,324.1,1,CCCCCCC(C)=O,didier14,0,0,0,0
n-HEPTANOIC acid,382.0,1,CCCCCCC(=O)O,didier14,0,0,0,1
2-ETHOXYETHYL ACETATE,328.0,1,CCOCCOC(C)=O,didier14,0,0,0,0
PIMELIC acid,488.0,1,O=C(O)CCCCCC(=O)O,didier14,0,0,0,1
SEBACIC acid,496.0,1,O=C(O)CCCCCCCCC(=O)O,didier14,0,0,0,1
n-HEXYLAMINE,281.1,1,CCCCCCN,didier14,0,0,0,0
1-HEXANOL,333.0,1,CCCCCCO,didier14,0,0,0,0
"1,5-PENTANEDIOL",402.1,1,OCCCCCO,didier14,0,0,0,0
GLUTARALDEHYDE,355.0,1,O=CCCCC=O,didier14,0,0,0,0
n-HEXYL MERCAPTAN,293.1,1,CCCCCCS,didier14,0,0,0,0
BUTYL VINYL ETHER,272.0,1,C=COCCCC,didier14,0,0,0,0
DIETHYLENETRIAMINE,372.0,1,NCCNCCN,didier14,0,0,0,0
N-AMINOETHYL ETHANOLAMINE,375.0,1,NCCNCCO,didier14,0,0,0,0
DIETHANOLAMINE,425.0,1,OCCNCCO,didier14,0,0,0,0
DI(2-CHLOROETHYL)ETHER,328.1,1,ClCCOCCCl,didier14,0,0,0,0
DIETHYLENE GLYCOL,397.0,1,OCCOCCO,didier14,0,0,0,0
HYDROXYPIVALYL HYDROXYPIVALATE,426.0,1,CC(C)(CO)C(=O)OC(=O)C(C)(C)CO,didier14,0,0,0,0
ETHYLENE GLYCOL DIACETATE,361.1,1,CC(=O)OCCOC(C)=O,didier14,0,0,0,0
n-OCTANE,286.0,1,CCCCCCCC,didier14,0,0,0,0
1-OCTENE,281.0,1,C=CCCCCCC,didier14,0,0,0,0
HEPTANAL,308.1,1,CCCCCCC=O,didier14,0,0,0,0
2-BUTOXYETHANOL,333.1,1,CCCCOCCO,didier14,0,0,0,0
2-(2-METHOXYETHOXY)ETHANOL,357.0,1,COCCOCCO,didier14,0,0,0,0
n-NONANE,304.0,1,CCCCCCCCC,didier14,0,0,0,0
1-OCTANOL,357.0,1,CCCCCCCCO,didier14,0,0,0,0
2-(2-ETHOXYETHOXY)ETHANOL,356.4,1,CCOCCOCCO,didier14,0,0,0,0
DI-(2-CHLOROETHOXY)METHANE,383.1,1,ClCCOCOCCCl,didier14,0,0,0,0
DI-n-BUTYLAMINE,312.1,1,CCCCNCCCC,didier14,0,0,0,0
DIETHYLENE GLYCOL DIMETHYL ETHER,335.9,1,COCCOCCOC,didier14,0,0,0,0
"1,4-DICYANO-2-BUTENE",418.0,1,N#CCC=CCC#N,didier14,0,0,0,0
n-UNDECANE,338.1,1,CCCCCCCCCCC,didier14,0,0,0,0
ETHYLENE GLYCOL MONOBUTYL ETHER ACETATE,344.1,1,CCCCOCCOC(C)=O,didier14,0,0,0,0
n-OCTYL ACETATE,359.1,1,CCCCCCCCOC(C)=O,didier14,0,0,0,0
DIETHYLENE GLYCOL ETHYL ETHER ACETATE,380.0,1,CCOCCOCCOC(C)=O,didier14,0,0,0,0
n-DECYL ACETATE,377.0,1,CCCCCCCCCCOC(C)=O,didier14,0,0,0,0
TRIETHYLENETETRAMINE,408.1,1,NCCNCCNCCN,didier14,0,0,0,0
2-HEXOXYETHANOL,355.0,1,CCCCCCOCCO,didier14,0,0,0,0
TRIETHYLENE GLYCOL,429.1,1,OCCOCCOCCO,didier14,0,0,0,0
CYCLOPENTYLACETIC acid,382.1,1,O=C(O)CC1CCCC1,didier14,0,0,0,1
1-DECANOL,355.4,1,CCCCCCCCCCO,didier14,0,0,0,0
DECANAL,358.1,1,CCCCCCCCCC=O,didier14,0,0,0,0
n-OCTYL FORMATE,337.0,1,CCCCCCCCOC=O,didier14,0,0,0,0
2-(2-BUTOXYETHOXY)ETHANOL,351.0,1,CCCCOCCOCCO,didier14,0,0,0,0
TRIETHYLENE GLYCOL MONOMETHYL ETHER,387.6,1,COCCOCCOCCO,didier14,0,0,0,0
DIETHYLENE GLYCOL DIETHYL ETHER,355.1,1,CCOCCOCCOCC,didier14,0,0,0,0
1-DODECENE,340.0,1,C=CCCCCCCCCCC,didier14,0,0,0,0
1-UNDECANOL,388.0,1,CCCCCCCCCCCO,didier14,0,0,0,0
UNDECANAL,369.1,1,CCCCCCCCCCC=O,didier14,0,0,0,0
"DECAN-1,10-DIOL",425.1,1,OCCCCCCCCCCO,didier14,0,0,0,0
TRIETHYLENE GLYCOL DIMETHYL ETHER,383.1,1,COCCOCCOCCOC,didier14,0,0,0,0
TRIETHYLENE GLYCOL MONOETHYL ETHER,408.1,1,CCOCCOCCOCCO,didier14,0,0,0,0
1-DODECANOL,398.0,1,CCCCCCCCCCCCO,didier14,0,0,0,0
DODECANAL,374.1,1,CCCCCCCCCCCC=O,didier14,0,0,0,0
TETRAETHYLENEPENTAMINE,436.0,1,NCCNCCNCCNCCN,didier14,0,0,0,0
2-(2-HEXOXYETHOXY)ETHANOL,408.1,1,CCCCCCOCCOCCO,didier14,0,0,0,0
TETRAETHYLENE GLYCOL,469.0,1,OCCOCCOCCOCCO,didier14,0,0,0,0
1-TETRADECANOL,416.0,1,CCCCCCCCCCCCCCO,didier14,0,0,0,0
DIETHYLENE GLYCOL DI-n-BUTYL ETHER,391.1,1,CCCCOCCOCCOCCCC,didier14,0,0,0,0
1-ETHYLNAPHTHALENE,384.1,1,CCc1cccc2ccccc12,didier14,0,0,0,0
1-OCTADECENE,421.1,1,C=CCCCCCCCCCCCCCCCC,didier14,0,0,0,0
"2,6-NAPHTHALENEDICARBOXYLIC acid",544.0,1,O=C(O)c1ccc2cc(C(=O)O)ccc2c1,didier14,0,0,0,1
PROPYLENE,165.0,1,C=CC,didier14,0,0,0,0
PENTAERYTHRITOL,533.1,1,OCC(CO)(CO)CO,didier14,0,0,0,0
DIOCTYL PHTHALATE,489.0,1,CCCCCCCCOC(=O)c1ccccc1C(=O)OCCCCCCCC,didier14,0,0,0,0
"2,2,3,4-TETRAMETHYLPENTANE",284.0,1,CC(C)C(C)C(C)(C)C,didier14,0,0,0,0
o-CHLOROBENZOIC acid,435.0,1,O=C(O)c1ccccc1Cl,didier14,0,0,0,1
2-HYDROXYACETOPHENONE,371.1,1,O=C(CO)c1ccccc1,didier14,0,0,0,0
6-HYDROXYHEXANOIC acid,444.0,1,O=C(O)CCCCCO,didier14,0,0,0,1
PENTAETHYLENE GLYCOL DIMETHYL ETHER,468.0,1,COCCOCCOCCOCCOCCOC,didier14,0,0,0,0
METHYL SALICYLATE,369.0,1,COC(=O)c1ccccc1O,didier14,0,0,0,0
ISOQUINOLINE,380.1,1,c1ccc2cnccc2c1,didier14,0,0,0,0
2-FORMYL BENZOIC acid,436.0,1,O=Cc1ccccc1C(=O)O,didier14,0,0,0,1
DIMETHYL TEREPHTHALATE,414.1,1,COC(=O)c1ccc(C(=O)OC)cc1,didier14,0,0,0,0
"1,2-BENZENEDIOL",400.0,1,Oc1ccccc1O,didier14,0,0,0,0
"1,2,4-TRICHLOROBENZENE",378.7,1,Clc1ccc(Cl)c(Cl)c1,didier14,0,0,0,0
ETHYL VANILLIN,445.0,1,CCOc1cc(C=O)ccc1O,didier14,0,0,0,0
VANILLIN,432.0,1,COc1cc(C=O)ccc1O,didier14,0,0,0,0
TRIETHYLAMINE,258.1,1,CCN(CC)CC,didier14,0,0,0,0
"N,N-DIMETHYLANILINE",335.1,1,CN(C)c1ccccc1,didier14,0,0,0,0
m-CHLORONITROBENZENE,400.1,1,O=[N+]([O-])c1cccc(Cl)c1,didier14,0,0,0,0
ISOPHTHALIC acid,601.0,1,O=C(O)c1cccc(C(=O)O)c1,didier14,0,0,0,1
HYDRAZOBENZENE,503.0,1,c1ccc(NNc2ccccc2)cc1,didier14,0,0,0,0
p-ETHYLPHENOL,373.1,1,CCc1ccc(O)cc1,didier14,0,0,0,0
p-HYDROXYBENZALDEHYDE,445.0,1,O=Cc1ccc(O)cc1,didier14,0,0,0,0
4-HEPTANONE,321.1,1,CCCC(=O)CCC,didier14,0,0,0,0
DIETHYL SUCCINATE,363.0,1,CCOC(=O)CCC(=O)OCC,didier14,0,0,0,0
PROPANAL,243.2,1,CCC=O,didier14,0,0,0,0
N-METHYLFORMAMIDE,376.0,1,CNC=O,didier14,0,0,0,0
DIACETONE ALCOHOL,331.0,1,CC(=O)CC(C)(C)O,didier14,0,0,0,0
3-METHYL-1-BUTANOL,316.0,1,CC(C)CCO,didier14,0,0,0,0
ACETYLACETONE,307.1,1,CC(=O)CC(C)=O,didier14,0,0,0,0
BUTANAL,262.1,1,CCCC=O,didier14,0,0,0,0
LEVULINIC acid,410.0,1,CC(=O)CCC(=O)O,didier14,0,0,0,1
DIOCTYL ADIPATE,500.1,1,CCCCCCCCOC(=O)CCCCC(=O)OCCCCCCCC,didier14,0,0,0,0
n-BUTYL ACETATE,295.0,1,CCCCOC(C)=O,didier14,0,0,0,0
n-BUTYL STEARATE,433.1,1,CCCCCCCCCCCCCCCCCC(=O)OCCCC,didier14,0,0,0,0
2-OCTANOL,344.3,1,CCCCCCC(C)O,didier14,0,0,0,0
AZELAIC acid,492.0,1,O=C(O)CCCCCCCC(=O)O,didier14,0,0,0,1
n-OCTANOIC acid,393.0,1,CCCCCCCC(=O)O,didier14,0,0,0,1
HEXAMETHYLENEDIAMINE,366.0,1,NCCCCCCN,didier14,0,0,0,0
1-NONENE,295.0,1,C=CCCCCCCC,didier14,0,0,0,0
OCTANAL,324.1,1,CCCCCCCC=O,didier14,0,0,0,0
DIETHYLENE GLYCOL MONOBUTYL ETHER ACETATE,375.1,1,CCCCOCCOCCOC(C)=O,didier14,0,0,0,0
n-DECANE,319.0,1,CCCCCCCCCC,didier14,0,0,0,0
NONANAL,336.1,1,CCCCCCCCC=O,didier14,0,0,0,0
DIMETHYLAMINE,223.2,1,CNC,didier14,0,0,0,0
NEOPENTYL GLYCOL,371.1,1,CC(C)(CO)CO,didier14,0,0,0,0
PYRUVIC acid,355.1,1,CC(=O)C(=O)O,didier14,0,0,0,1
"N,N-DIMETHYLACETAMIDE",336.1,1,CC(=O)N(C)C,didier14,0,0,0,0
PYRENE,472.0,1,c1cc2ccc3cccc4ccc(c1)c2c34,didier14,0,0,0,0