compound,flashpoint,pure substance,smiles,source,is_silicon,is_metallic,is_tin,is_acid
"2,3-dimethylbutane",244.0,1,CC(C)C(C)C,Saldana11,0,0,0,0
"2,3-dimethylheptane",288.0,1,CCCCC(C)C(C)C,Saldana11,0,0,0,0
"2,3-dimethylhexane",278.0,1,CCCC(C)C(C)C,Saldana11,0,0,0,0
"2,3-dimethyloctane",309.0,1,CCCCCC(C)C(C)C,Saldana11,0,0,0,0
"2,3-dimethylpentane",258.0,1,CCC(C)C(C)C,Saldana11,0,0,0,0
"2,3,3-trimethylhexane",288.0,1,CCCC(C)(C)C(C)C,Saldana11,0,0,0,0
"2,3,3-trimethylpentane",273.0,1,CCC(C)(C)C(C)C,Saldana11,0,0,0,0
"2,3,3,4-tetramethylhexane",304.0,1,CCC(C)C(C)(C)C(C)C,Saldana11,0,0,0,0
"2,3,3,4-tetramethylpentane",284.0,1,CC(C)C(C)(C)C(C)C,Saldana11,0,0,0,0
"2,3,4-trimethylhexane",288.0,1,CCC(C)C(C)C(C)C,Saldana11,0,0,0,0
"2,3,4-trimethylpentane",273.0,1,CC(C)C(C)C(C)C,Saldana11,0,0,0,0
"2,3,4,4-tetramethylhexane",304.0,1,CCC(C)(C)C(C)C(C)C,Saldana11,0,0,0,0
"2,3,4,5-tetramethylhexane",304.0,1,CC(C)C(C)C(C)C(C)C,Saldana11,0,0,0,0
"2,3,5-trimethylheptane",304.0,1,CCC(C)CC(C)C(C)C,Saldana11,0,0,0,0
"2,3,5-trimethylhexane",288.0,1,CC(C)CC(C)C(C)C,Saldana11,0,0,0,0
"2,4-dimethylheptane",288.0,1,CCCC(C)CC(C)C,Saldana11,0,0,0,0
"2,4-dimethylhexane",283.0,1,CCC(C)CC(C)C,Saldana11,0,0,0,0
"2,4-dimethylpentane",261.0,1,CC(C)CC(C)C,Saldana11,0,0,0,0
"2,4,4-trimethylhexane",288.0,1,CCC(C)(C)CC(C)C,Saldana11,0,0,0,0
"2,4,5-trimethylheptane",304.0,1,CCC(C)C(C)CC(C)C,Saldana11,0,0,0,0
"2,4,6-trimethylheptane",304.0,1,CC(C)CC(C)CC(C)C,Saldana11,0,0,0,0
"2,5-dimethylheptane",288.0,1,CCC(C)CCC(C)C,Saldana11,0,0,0,0
"2,5-dimethylhexane",271.0,1,CC(C)CCC(C)C,Saldana11,0,0,0,0
"2,6-dimethylheptane",299.0,1,CC(C)CCCC(C)C,Saldana11,0,0,0,0
"2,6-dimethyloctane",307.0,1,CCC(C)CCCC(C)C,Saldana11,0,0,0,0
"2,6,10,15,19,23-hexamethyltetracosane",490.0,1,CC(CCCCC(C)CCCC(C)CCCC(C)C)CCCC(C)CCCC(C)C,Saldana11,0,0,0,0
"2,7-dimethyloctane",314.0,1,CC(C)CCCCC(C)C,Saldana11,0,0,0,0
3-ethyl-2-methylpentane,276.0,1,CCC(CC)C(C)C,Saldana11,0,0,0,0
"3-ethyl-2,2-dimethylhexane",311.0,1,CCCC(CC)C(C)(C)C,Saldana11,0,0,0,0
"3-ethyl-2,2-dimethylpentane",286.0,1,CCC(CC)C(C)(C)C,Saldana11,0,0,0,0
"3-ethyl-2,3-dimethylpentane",288.0,1,CCC(C)(CC)C(C)C,Saldana11,0,0,0,0
"3-ethyl-2,3,4-trimethylpentane",304.0,1,CCC(C)(C(C)C)C(C)C,Saldana11,0,0,0,0
"3-ethyl-2,4-dimethylpentane",288.0,1,CCC(C(C)C)C(C)C,Saldana11,0,0,0,0
3-ethyl-3-methylheptane,314.0,1,CCCCC(C)(CC)CC,Saldana11,0,0,0,0
3-ethyl-3-methylpentane,276.0,1,CCC(C)(CC)CC,Saldana11,0,0,0,0
3-ethyl-4-methylhexane,288.0,1,CCC(CC)C(C)CC,Saldana11,0,0,0,0
3-ethyl-5-methylheptane,304.0,1,CCC(C)CC(CC)CC,Saldana11,0,0,0,0
3-ethylhexane,278.0,1,CCCC(CC)CC,Saldana11,0,0,0,0
3-ethylpentane,261.0,1,CCC(CC)CC,Saldana11,0,0,0,0
3-methylheptane,279.0,1,CCCCC(C)CC,Saldana11,0,0,0,0
3-methylhexane,269.0,1,CCCC(C)CC,Saldana11,0,0,0,0
3-methylnonane,311.0,1,CCCCCCC(C)CC,Saldana11,0,0,0,0
3-methyloctane,297.0,1,CCCCCC(C)CC,Saldana11,0,0,0,0
3-methylpentane,241.0,1,CCC(C)CC,Saldana11,0,0,0,0
"3,3-diethylpentane",294.0,1,CCC(CC)(CC)CC,Saldana11,0,0,0,0
"3,3-dimethylhexane",272.0,1,CCCC(C)(C)CC,Saldana11,0,0,0,0
"3,3-dimethyloctane",314.0,1,CCCCCC(C)(C)CC,Saldana11,0,0,0,0
"3,3-dimethylpentane",254.0,1,CCC(C)(C)CC,Saldana11,0,0,0,0
"3,3,4-trimethylhexane",288.0,1,CCC(C)C(C)(C)CC,Saldana11,0,0,0,0
"3,3,4,4-tetramethylhexane",304.0,1,CCC(C)(C)C(C)(C)CC,Saldana11,0,0,0,0
"3,3,5-trimethylheptane",304.0,1,CCC(C)CC(C)(C)CC,Saldana11,0,0,0,0
"3,4-dimethylheptane",288.0,1,CCCC(C)C(C)CC,Saldana11,0,0,0,0
"3,4-dimethylhexane",277.0,1,CCC(C)C(C)CC,Saldana11,0,0,0,0
"3,4,5-trimethylheptane",304.0,1,CCC(C)C(C)C(C)CC,Saldana11,0,0,0,0
"3,5-dimethylheptane",288.0,1,CCC(C)CC(C)CC,Saldana11,0,0,0,0
"3,5-dimethyloctane",314.0,1,CCCC(C)CC(C)CC,Saldana11,0,0,0,0
4-ethyl-3-methylheptane,314.0,1,CCCC(CC)C(C)CC,Saldana11,0,0,0,0
4-ethylheptane,288.0,1,CCCC(CC)CCC,Saldana11,0,0,0,0
4-ethyloctane,314.0,1,CCCCC(CC)CCC,Saldana11,0,0,0,0
4-methylheptane,279.0,1,CCCC(C)CCC,Saldana11,0,0,0,0
4-methylnonane,311.0,1,CCCCCC(C)CCC,Saldana11,0,0,0,0
4-methyloctane,295.0,1,CCCCC(C)CCC,Saldana11,0,0,0,0
4-propylheptane,314.0,1,CCCC(CCC)CCC,Saldana11,0,0,0,0
"4,4-dimethylheptane",288.0,1,CCCC(C)(C)CCC,Saldana11,0,0,0,0
5-methylnonane,312.0,1,CCCCC(C)CCCC,Saldana11,0,0,0,0
isobutane,190.0,1,CC(C)C,Saldana11,0,0,0,0
isohexane,250.0,1,CCCC(C)C,Saldana11,0,0,0,0
isopentane,217.0,1,CCC(C)C,Saldana11,0,0,0,0
n-decane,319.0,1,CCCCCCCCCC,Saldana11,0,0,0,0
n-dodecane,347.0,1,CCCCCCCCCCCC,Saldana11,0,0,0,0
n-heptadecane,421.0,1,CCCCCCCCCCCCCCCCC,Saldana11,0,0,0,0
n-heptane,269.0,1,CCCCCCC,Saldana11,0,0,0,0
n-hexadecane,408.0,1,CCCCCCCCCCCCCCCC,Saldana11,0,0,0,0
n-hexane,252.0,1,CCCCCC,Saldana11,0,0,0,0
n-nonadecane,441.0,1,CCCCCCCCCCCCCCCCCCC,Saldana11,0,0,0,0
n-nonane,304.0,1,CCCCCCCCC,Saldana11,0,0,0,0
n-octadecane,438.0,1,CCCCCCCCCCCCCCCCCC,Saldana11,0,0,0,0
n-octane,286.0,1,CCCCCCCC,Saldana11,0,0,0,0
n-pentadecane,388.0,1,CCCCCCCCCCCCCCC,Saldana11,0,0,0,0
n-pentane,233.0,1,CCCCC,Saldana11,0,0,0,0
n-tetradecane,373.0,1,CCCCCCCCCCCCCC,Saldana11,0,0,0,0
n-tridecane,352.0,1,CCCCCCCCCCCCC,Saldana11,0,0,0,0
n-undecane,338.0,1,CCCCCCCCCCC,Saldana11,0,0,0,0
TETRA-n-BUTOXYGERMANE,385.15,1,CCCCO[Ge](OCCCC)(OCCCC)OCCCC,gelest_germanium,0,1,0,0
TETRA-n-BUTYLGERMANE,363.15,1,CCCC[Ge](CCCC)(CCCC)CCCC,gelest_germanium,0,1,0,0
TETRAETHOXYGERMANE,335.15,1,CCO[Ge](OCC)(OCC)OCC,gelest_germanium,0,1,0,0
TETRAETHYLGERMANE,315.15,1,CC[Ge](CC)(CC)CC,gelest_germanium,0,1,0,0
TETRAKIS(DIMETHYLAMINO)GERMANE,307.15,1,CN(C)[Ge](N(C)C)(N(C)C)N(C)C,gelest_germanium,0,1,0,0
TETRAISOPROPOXYGERMANE,341.15,1,CC(C)O[Ge](OC(C)C)(OC(C)C)OC(C)C,gelest_germanium,0,1,0,0
TETRAMETHOXYGERMANE,307.15,1,CO[Ge](OC)(OC)OC,gelest_germanium,0,1,0,0
TETRAMETHYLGERMANE,254.15,1,C[Ge](C)(C)C,gelest_germanium,0,1,0,0
TRI-n-BUTYLCHLOROGERMANE,367.15,1,CCCC[Ge](Cl)(CCCC)CCCC,gelest_germanium,0,1,0,0
TRI-n-BUTYLGERMANE,351.15,1,CCCC[GeH](CCCC)CCCC,gelest_germanium,0,1,0,0
TRICHLOROGERMANE,285.15,1,Cl[GeH](Cl)Cl,gelest_germanium,0,1,0,0
TRIETHYLCHLOROGERMANE,311.15,1,CC[Ge](Cl)(CC)CC,gelest_germanium,0,1,0,0
TRIETHYLGERMANE,278.15,1,CC[GeH](CC)CC,gelest_germanium,0,1,0,0
TRIISOPROPYLCHLOROGERMANE,339.15,1,CC(C)[Ge](Cl)(C(C)C)C(C)C,gelest_germanium,0,1,0,0
TRIMETHYLBROMOGERMANE,310.15,1,C[Ge](C)(C)Br,gelest_germanium,0,1,0,0
TRIMETHYLCHLOROGERMANE,274.15,1,C[Ge](C)(C)Cl,gelest_germanium,0,1,0,0
VINYLTRIETHYLGERMANE,305.15,1,C=C[Ge](CC)(CC)CC,gelest_germanium,0,1,0,0
ALUMINUM DIISOPROPOXIDE ETHYLACETOACETATE,323.15,1,CC(C)[O-].CC(C)[O-].CCOC(=O)CC(C)=O.[Al+2],gelest_metal-organics,0,1,0,0
ANTIMONY(III) n-BUTOXIDE,341.15,1,CCCC[O-].CCCC[O-].CCCC[O-].[Sb+3],gelest_metal-organics,0,1,0,0
ARSENIC TRIETHOXIDE,322.15,1,CC[O-].CC[O-].CC[O-].[As+3],gelest_metal-organics,0,1,0,0
BORON ALLYLOXIDE,304.15,1,C=CCOCC=C.[B],gelest_metal-organics,0,1,0,0
BORON n-BUTOXIDE,366.15,1,CCCC[O-].CCCC[O-].CCCC[O-].[B+3],gelest_metal-organics,0,1,0,0
BORON ETHOXIDE,284.15,1,CC[O-].CC[O-].CC[O-].[B+3],gelest_metal-organics,0,1,0,0
BORON ISOPROPOXIDE,301.15,1,CC(C)[O-].CC(C)[O-].CC(C)[O-].[B+3],gelest_metal-organics,0,1,0,0
BORON METHOXIDE,272.15,1,C[O-].C[O-].C[O-].[B+3],gelest_metal-organics,0,1,0,0
BORON METHOXYETHOXIDE,386.15,1,COC(C)[O-].COC(C)[O-].COC(C)[O-].[B+3],gelest_metal-organics,0,1,0,0
NICKEL DI-n-BUTYLDITHIOCARBAMATE,533.15,1,CCCCN(CCCC)C(=S)[S-].CCCCN(CCCC)C(=S)[S-].[Ni+2],gelest_metal-organics,0,1,0,0
NIOBIUM(V) n-BUTOXIDE,363.15,1,CCCC[O-].CCCC[O-].CCCC[O-].CCCC[O-].CCCC[O-].[Nb+5],gelest_metal-organics,0,1,0,0
NIOBIUM(V) ETHOXIDE,347.15,1,CC[O-].CC[O-].CC[O-].CC[O-].CC[O-].[Nb+5],gelest_metal-organics,0,1,0,0
TANTALUM(V) n-BUTOXIDE,339.15,1,CCCC[O-].CCCC[O-].CCCC[O-].CCCC[O-].CCCC[O-].[Ta+5],gelest_metal-organics,0,1,0,0
TANTALUM(V) ETHOXIDE,313.15,1,CC[O-].CC[O-].CC[O-].CC[O-].CC[O-].[Ta+5],gelest_metal-organics,0,1,0,0
TITANIUM n-BUTOXIDE,349.15,1,CCCC[O-].CCCC[O-].CCCC[O-].CCCC[O-].[Ti+4],gelest_metal-organics,0,1,0,0
TITANIUM CHLORIDE TRIISOPROPOXIDE,295.15,1,CC(C)[O-].CC(C)[O-].CC(C)[O-].[Cl-].[Ti+4],gelest_metal-organics,0,1,0,0
TITANIUM ETHOXIDE,301.15,1,CC[O-].CC[O-].CC[O-].CC[O-].[Ti+4],gelest_metal-organics,0,1,0,0
TITANIUM ETHOXIDE,303.15,1,CC[O-].CC[O-].CC[O-].CC[O-].[Ti+4],gelest_metal-organics,0,1,0,0
TITANIUM DIISOPROPOXIDE BIS(ETHYLACETOACETATE),300.15,1,CC(C)[O-].CC(C)[O-].CCCC(=O)CC(=O)[O-].CCCC(=O)CC(=O)[O-].[Ti+4],gelest_metal-organics,0,1,0,0
TITANIUM ISOBUTOXIDE,350.15,1,CC(C)C[O-].CC(C)C[O-].CC(C)C[O-].CC(C)C[O-].[Ti+4],gelest_metal-organics,0,1,0,0
TITANIUM ISOPROPOXIDE,298.15,1,CC(C)[O-].CC(C)[O-].CC(C)[O-].CC(C)[O-].[Ti+4],gelest_metal-organics,0,1,0,0
TITANIUM METHOXIDE,321.15,1,C[O-].C[O-].C[O-].C[O-].[Ti+4],gelest_metal-organics,0,1,0,0
TITANIUM METHYLPHENOXIDE,339.15,1,Cc1ccccc1[O-].Cc1ccccc1[O-].Cc1ccccc1[O-].Cc1ccccc1[O-].[Ti+4],gelest_metal-organics,0,1,0,0
TITANIUM n-PROPOXIDE,318.15,1,CCC[O-].CCC[O-].CCC[O-].CCC[O-].[Ti+4],gelest_metal-organics,0,1,0,0
TITANIUM TRIISOSTEAROYLISOPROPOXIDE,366.15,1,CC(C)CCCCCCCCCCCCCCC(=O)C(C(=O)CCCCCCCCCCCCCCC(C)C)(C(=O)CCCCCCCCCCCCCCC(C)C)C(C)[O-].CC(C)CCCCCCCCCCCCCCC(=O)C(C(=O)CCCCCCCCCCCCCCC(C)C)(C(=O)CCCCCCCCCCCCCCC(C)C)C(C)[O-].CC(C)CCCCCCCCCCCCCCC(=O)C(C(=O)CCCCCCCCCCCCCCC(C)C)(C(=O)CCCCCCCCCCCCCCC(C)C)C(C)[O-].CC(C)CCCCCCCCCCCCCCC(=O)C(C(=O)CCCCCCCCCCCCCCC(C)C)(C(=O)CCCCCCCCCCCCCCC(C)C)C(C)[O-].[Ti+4],gelest_metal-organics,0,1,0,0
ZIRCONIUM t-BUTOXIDE,358.15,1,CC(C)(C)[O-].CC(C)(C)[O-].CC(C)(C)[O-].CC(C)(C)[O-].[Zr+4],gelest_metal-organics,0,1,0,0
CALCIUM 2-ETHYLHEXANOATE,400.15,1,CCCCC(CC)C(=O)[O-].CCCCC(CC)C(=O)[O-].[Ca+2],gelest_metal-organics,0,1,0,0
SILVER NEODECANOATE,375.15,1,CC(C)(C)CCCCCC(=O)[O-].[Ag+],gelest_metal-organics,0,1,0,0
ZINC 2-ETHYLHEXANOATE,400.15,1,CCCCC(CC)C(=O)[O-].CCCCC(CC)C(=O)[O-].[Zn+2],gelest_metal-organics,0,1,0,0
ZINC NEODECANOATE,375.15,1,CC(C)(C)CCCCCC(=O)[O-].CC(C)(C)CCCCCC(=O)[O-].[Zn+2],gelest_metal-organics,0,1,0,0
DIMETHYLALUMINUM CHLORIDE,255.15,1,C[Al](C)Cl,gelest_metal-organics,0,1,0,0
DIMETHYLISOPROPOXYALUMINUM,278.15,1,CC(C)O[Al](C)C,gelest_metal-organics,0,1,0,0
DIMETHYLCADMIUM,255.15,1,C[Cd]C,gelest_metal-organics,0,1,0,0
VINYLFERROCENE,335.15,1,C=C[c-]1cccc1.[Fe+2].c1cc[cH-]c1,gelest_metal-organics,0,1,0,0
TRIMETHYLGALLIUM,272.15,1,C[Ga](C)C,gelest_metal-organics,0,1,0,0
TRIS(DIMETHYLAMINO)GALLIUM,329.15,1,CN(C)[Ga](N(C)C)N(C)C,gelest_metal-organics,0,1,0,0
HAFNIUM TETRAKIS(ETHYLMETHYLAMIDE),283.15,1,CC[N-]C.CC[N-]C.CC[N-]C.CC[N-]C.[Hf+4],gelest_metal-organics,0,1,0,0
DICYCLOHEXYLPHOSPHINE,383.15,1,C1CCC(PC2CCCCC2)CC1,gelest_metal-organics,0,0,0,0
DIETHYLPHOSPHITE,363.15,1,CCOP([O-])OCC,gelest_metal-organics,0,0,0,0
DIPHENYLPHOSPHINE,383.15,1,c1ccc(Pc2ccccc2)cc1,gelest_metal-organics,0,0,0,0
DIPHENYLPHOSPHORYL AZIDE,385.15,1,[N-]=[N+]=NP(=O)(c1ccccc1)c1ccccc1,gelest_metal-organics,0,0,0,0
TETRADECYL(TRIHEXYL)PHOSPHONIUM CHLORIDE,391.15,1,CCCCCCCCCCCCCC[P+](CCCCCC)(CCCCCC)CCCCCC.[Cl-],gelest_metal-organics,0,0,0,0
TRIETHYLPHOSPHATE,389.15,1,CCOP(=O)(OCC)OCC,gelest_metal-organics,0,0,0,0
TRIETHYLPHOSPHITE,327.15,1,CCOP(OCC)OCC,gelest_metal-organics,0,0,0,0
TRIMETHYLPHOSPHITE,300.15,1,COP(OC)OC,gelest_metal-organics,0,0,0,0
TRIOCTYLPHOSPHINE,420.15,1,CCCCCCCCP(CCCCCCCC)CCCCCCCC,gelest_metal-organics,0,0,0,0
TRIPHENYLPHOSPHINE,455.15,1,c1ccc(P(c2ccccc2)c2ccccc2)cc1,gelest_metal-organics,0,0,0,0
TRIS(DIETHYLAMINO)(t-BUTYLIMINO) TANTALUM,319.15,1,CCN(CC)[Ta](=NC(C)(C)C)(N(CC)CC)N(CC)CC,gelest_metal-organics,0,1,0,0
TITANIUM TETRAKIS(DIETHYLAMIDE),310.15,1,CC[N-]CC.CC[N-]CC.CC[N-]CC.CC[N-]CC.[Ti+4],gelest_metal-organics,0,1,0,0
TITANIUM TETRAKIS(DIMETHYLAMIDE),281.15,1,C[N-]C.C[N-]C.C[N-]C.C[N-]C.[Ti+4],gelest_metal-organics,0,1,0,0
TITANIUM TETRAKIS(ETHYLMETHYLAMIDE),283.15,1,CC[N-]C.CC[N-]C.CC[N-]C.CC[N-]C.[Ti+4],gelest_metal-organics,0,1,0,0
ZIRCONIUM TETRAKIS(ETHYLMETHYLAMIDE),283.15,1,CC[N-]C.CC[N-]C.CC[N-]C.CC[N-]C.[Zr+4],gelest_metal-organics,0,1,0,0
TETRAETHYLLEAD,346.15,1,CC[Pb](CC)(CC)CC,gelest_metal-organics,0,1,0,0
Trichlorosilane,245.0,1,Cl[SiH](Cl)Cl,pan12,1,1,0,0
Dichlorosilane,236.0,1,Cl[SiH2]Cl,pan12,1,1,0,0
Methyltrichlorosilane,276.0,1,C[Si](Cl)(Cl)Cl,pan12,1,1,0,0
Dichloromethylmethyldichlorosilane,301.0,1,ClC(Cl)[Si](Cl)(Cl)C,pan12,1,1,0,0
Ethyltrichlorosilane,295.0,1,C(C)[Si](Cl)(Cl)Cl,pan12,1,1,0,0
Dimethyldichlorosilane,257.0,1,C[Si](Cl)(Cl)C,pan12,1,1,0,0
Dimethylchlorosilane,245.0,1,C[SiH](Cl)C,pan12,1,1,0,0
Allyltrichlorosilane,304.0,1,C(C=C)[Si](Cl)(Cl)Cl,pan12,1,1,0,0
3-Chloropropyltrichlorosilane,357.0,1,ClCCC[Si](Cl)(Cl)Cl,pan12,1,1,0,0
Bromomethyldimethylchlorosilane,314.0,1,BrC[Si](Cl)(C)C,pan12,1,1,0,0
Chloromethyldimethylchlorosilane,295.0,1,ClC[Si](Cl)(C)C,pan12,1,1,0,0
Trimethylbromosilane,270.0,1,C[Si](Br)(C)C,pan12,1,1,0,0
Trimethylchlorosilane,255.0,1,C[Si](Cl)(C)C,pan12,1,1,0,0
Trimethoxysilane,264.0,1,CO[SiH](OC)OC,pan12,1,1,0,0
Trimethylsilane,204.0,1,C[SiH](C)C,pan12,1,1,0,0
Cyanoethylmethyldichlorosilane,333.0,1,C(#N)CC[Si](Cl)(Cl)C,pan12,1,1,0,0
Allylmethyldichlorosilane,300.0,1,C(C=C)C[SiH](Cl)Cl,pan12,1,1,0,0
t-Butyltrichlorosilane,294.0,1,C(C)(C)(C)[Si](Cl)(Cl)Cl,pan12,1,1,0,0
Isobutyltrichlorosilane,310.0,1,C(C(C)C)[Si](Cl)(Cl)Cl,pan12,1,1,0,0
n-Butyltrichlorosilane,327.0,1,C(CCC)[Si](Cl)(Cl)Cl,pan12,1,1,0,0
n-Propylmethyldichlorosilane,300.0,1,C(CC)[Si](Cl)(Cl)C,pan12,1,1,0,0
Bromomethyltrimethylsilane,289.0,1,BrC[Si](C)(C)C,pan12,1,1,0,0
Ethyldimethylchlorosilane,269.0,1,C(C)[Si](Cl)(C)C,pan12,1,1,0,0
"1,3-Dichlorotetramethyldisiloxane",288.0,1,Cl[Si](O[Si](Cl)(C)C)(C)C,pan12,1,1,0,0
Dimethyldimethoxysilane,265.0,1,C[Si](OC)(OC)C,pan12,1,1,0,0
Methyltrimethoxysilane,284.0,1,C[Si](OC)(OC)OC,pan12,1,1,0,0
Tetramethoxysilane,294.0,1,CO[Si](OC)(OC)OC,pan12,1,1,0,0
Tetramethylsilane,245.0,1,C[Si](C)(C)C,pan12,1,1,0,0
"(N,N-Dimethylamino)dimethylsilane",260.0,1,CN(C)[SiH](C)C,pan12,1,1,0,0
"1,1,3,3-Tetramethyldisiloxane",251.0,1,C[SiH](O[SiH](C)C)C,pan12,1,1,0,0
Tetramethyldisilazane,284.0,1,CN([Si](C)(C)C)[SiH3],pan12,1,1,0,0
Cyclopentyltrichlorosilane,350.0,1,C1(CCCC1)[Si](Cl)(Cl)Cl,pan12,1,1,0,0
Trimethylsilyltrifluoroacetate,273.0,1,C[Si](C)(C)OC(C(F)(F)F)=O,pan12,1,1,0,0
Cyclopentyldichlorosilane,316.0,1,C1(CCCC1)[SiH](Cl)Cl,pan12,1,1,0,0
Allyldimethylchlorosilane,278.0,1,C(C=C)[Si](Cl)(C)C,pan12,1,1,0,0
3-Chloro-2-methylpropylmethyldichlorosilane,363.0,1,ClCC(C[Si](Cl)(Cl)C)C,pan12,1,1,0,0
n-Butylmethyldichlorosilane,303.0,1,C(CCC)[Si](Cl)(Cl)C,pan12,1,1,0,0
Methylvinyldimethoxysilane,277.0,1,CC=C[SiH](OC)OC,pan12,1,1,0,0
Trimethylvinylsilane,239.0,1,CC(=C(C)C)[SiH3],pan12,1,1,0,0
Diethylmethylchlorosilane,288.0,1,C(C)[Si](Cl)(C)CC,pan12,1,1,0,0
Chloromethyldimethylethoxysilane,299.0,1,ClC[Si](OCC)(C)C,pan12,1,1,0,0
Ethyltrimethoxysilane,300.0,1,C(C)[Si](OC)(OC)OC,pan12,1,1,0,0
"(N,N-Dimethylamino)trimethylsilane",254.0,1,CN(C)[Si](C)(C)C,pan12,1,1,0,0
Bis(dimethylamino)methylsilane,270.0,1,CN(C)C(N(C)C)[SiH3],pan12,1,1,0,0
Pentamethyldisiloxane,254.0,1,C[SiH](O[Si](C)(C)C)C,pan12,1,1,0,0
Phenyldichlorosilane,333.0,1,C1(=CC=CC=C1)[SiH](Cl)Cl,pan12,1,1,0,0
Phenylsilane,281.0,1,C1(=CC=CC=C1)[SiH3],pan12,1,1,0,0
1-Hexenyltrichlorosilane,333.0,1,C(=CCCCC)[Si](Cl)(Cl)Cl,pan12,1,1,0,0
Bis(chloromethyl)tetramethyldisiloxane,346.0,1,ClC[Si](O[Si](C)(C)C)(C)CCl,pan12,1,1,0,0
N-Methyl-N-trimethylsilyltrifluoroacetamide,298.0,1,CN(C(C(F)(F)F)=O)[Si](C)(C)C,pan12,1,1,0,0
Propargyloxytrimethylsilane,300.0,1,C(C#C)O[Si](C)(C)C,pan12,1,1,0,0
Dimethyldiacetoxysilane,310.0,1,C[Si](OC(C)=O)(OC(C)=O)C,pan12,1,1,0,0
Divinyldimethylsilane,281.0,1,C(=C)[Si](C)(C)C=C,pan12,1,1,0,0
n-Hexyltrichlorosilane,358.0,1,C(CCCCC)[Si](Cl)(Cl)Cl,pan12,1,1,0,0
Vinyldimethylethoxysilane,277.0,1,C(=C)[Si](OCC)(C)C,pan12,1,1,0,0
"1,1-Dimethyl-1-sila-2-oxacyclohexane",287.0,1,C[Si]1(OCCCC1)C,pan12,1,1,0,0
Allyloxytrimethylsilane,273.0,1,C(C=C)O[Si](C)(C)C,pan12,1,1,0,0
Acetoxymethyltrimethylsilane,293.0,1,C(C)(=O)OC[Si](C)(C)C,pan12,1,1,0,0
Allyltrimethylsilane,280.0,1,C(C=C)[Si](C)(C)C,pan12,1,1,0,0
Triethylchlorosilane,303.0,1,C(C)[Si](Cl)(CC)CC,pan12,1,1,0,0
t-Butyldimethylchlorosilane,295.0,1,C(C)(C)(C)[Si](Cl)(C)C,pan12,1,1,0,0
3-Chloropropyltrimethoxysilane,348.0,1,ClCCC[Si](OC)(OC)OC,pan12,1,1,0,0
Trimethyl-n-propoxysilane,283.0,1,C[Si](OCCC)(C)C,pan12,1,1,0,0
t-Butyldimethylsilanol,318.0,1,C(C)(C)(C)[Si](O)(C)C,pan12,1,1,0,0
Dimethyldiethoxysilane,284.0,1,C[Si](OCC)(OCC)C,pan12,1,1,0,0
Triethylsilane,270.0,1,C(C)[SiH](CC)CC,pan12,1,1,0,0
Hexylsilane,285.0,1,C(CCCCC)[SiH3],pan12,1,1,0,0
t-Butyldimethylsilane,251.0,1,C(C)(C)(C)[SiH](C)C,pan12,1,1,0,0
Bis(dimethylamino)dimethylsilane,266.0,1,CN(C)[Si](C)(C)N(C)C,pan12,1,1,0,0
Hexamethylcyclotrisiloxane,305.0,1,C[Si]1(O[Si](O[Si](O1)(C)C)(C)C)C,pan12,1,1,0,0
Hexamethyldisilthiane,299.0,1,C[Si](S[Si](C)(C)C)(C)C,pan12,1,1,0,0
Hexamethyldisilane,272.0,1,C[Si]([Si](C)(C)C)(C)C,pan12,1,1,0,0
Tris(dimethylamino)silane,298.0,1,CN(C)[SiH](N(C)C)N(C)C,pan12,1,1,0,0
Hexamethyltrisiloxane,293.0,1,C[Si](O[SiH2]O[Si](C)(C)C)(C)C,pan12,1,1,0,0
Phenylmethyldichlorosilane,355.0,1,C1(=CC=CC=C1)C[SiH](Cl)Cl,pan12,1,1,0,0
Phenylmethylchlorosilane,355.0,1,C1(=CC=CC=C1)C[SiH2]Cl,pan12,1,1,0,0
Trivinylmethylsilane,288.0,1,C(=C)C(C=C)(C=C)[SiH3],pan12,1,1,0,0
Cyclohexylmethyldichlorosilane,355.0,1,C1(CCCCC1)C[SiH](Cl)Cl,pan12,1,1,0,0
"1-(Trimethylsiloxy)-1,3-butadiene",298.0,1,C[Si](OC=CC=C)(C)C,pan12,1,1,0,0
2-Chloromethyl-3-trimethylsilyl-1-propene,316.0,1,ClCC(=C)C[Si](C)(C)C,pan12,1,1,0,0
n-Hexylmethyldichlorosilane,358.0,1,C(CCCCC)[Si](Cl)(Cl)C,pan12,1,1,0,0
Vinylmethyldiethoxysilane,289.0,1,C(=C)C[SiH](OCC)OCC,pan12,1,1,0,0
Vinyldiethylmethylsilane,288.0,1,C(=C)[Si](C)(CC)CC,pan12,1,1,0,0
N-(Trimethylsilyl)morpholine,300.0,1,C[Si](N1CCOCC1)(C)C,pan12,1,1,0,0
Bis(trimethylsilyl)carbodiimide,315.0,1,C[Si](C)(C)N=C=N[Si](C)(C)C,pan12,1,1,0,0
t-Butoxytrimethylsilane,287.0,1,C(C)(C)(C)O[Si](C)(C)C,pan12,1,1,0,0
Vinylpentamethyldisiloxane,285.0,1,C(=C)[Si](O[Si](C)(C)C)(C)C,pan12,1,1,0,0
Isobutyltrimethoxysilane,315.0,1,C(C(C)C)[Si](OC)(OC)OC,pan12,1,1,0,0
Methyltriethoxysilane,297.0,1,C[Si](OCC)(OCC)OCC,pan12,1,1,0,0
(Diethylamino)trimethylsilane,283.0,1,C(C)N(CC)[Si](C)(C)C,pan12,1,1,0,0
Bis(trimethylsilyl)methane,285.0,1,C[Si](C)(C)C[Si](C)(C)C,pan12,1,1,0,0
Phenylethyldichlorosilane,365.0,1,C1(=CC=CC=C1)CC[SiH](Cl)Cl,pan12,1,1,0,0
Phenyldimethylchlorosilane,334.0,1,C1(=CC=CC=C1)[Si](Cl)(C)C,pan12,1,1,0,0
"(N,N-Dimethylamino)triethylsilane",299.0,1,CN(C)[Si](CC)(CC)CC,pan12,1,1,0,0
Tetravinylsilane,291.0,1,C(=C)[Si](C=C)(C=C)C=C,pan12,1,1,0,0
Phenyldimethylsilane,311.0,1,C1(=CC=CC=C1)[SiH](C)C,pan12,1,1,0,0
Ethyltriacetoxysilane,377.0,1,C(C)[Si](OC(C)=O)(OC(C)=O)OC(C)=O,pan12,1,1,0,0
Cyclopentadienyltrimethylsilane,302.0,1,C1(C=CC=C1)[Si](C)(C)C,pan12,1,1,0,0
3-(Trimethylsilyl)cyclopentene,299.0,1,C[Si](C1C=CCC1)(C)C,pan12,1,1,0,0
"(2,4-Pentadienyl)trimethylsilane",291.0,1,C(C=CC=C)[Si](C)(C)C,pan12,1,1,0,0
n-Octyltrichlorosilane,369.0,1,C(CCCCCCC)[Si](Cl)(Cl)Cl,pan12,1,1,0,0
n-Heptylmethyldichlorosilane,339.0,1,C(CCCCCC)[Si](Cl)(Cl)C,pan12,1,1,0,0
Triethylacetoxysilane,314.0,1,C(C)C(C(=O)O[SiH3])(CC)CC,pan12,1,1,0,0
Vinyltriethoxysilane,307.0,1,C(=C)[Si](OCC)(OCC)OCC,pan12,1,1,0,0
Vinyltriethylsilane,298.0,1,C(=C)[Si](CC)(CC)CC,pan12,1,1,0,0
"1,3-Divinyltetramethyldisilazane",307.0,1,C(=C)[Si](N[Si](C=C)(C)C)(C)C,pan12,1,1,0,0
Tetraethoxysilane,323.0,1,C(C)O[Si](OCC)(OCC)OCC,pan12,1,1,0,0
Tetraethylsilane,299.0,1,C(C)[Si](CC)(CC)CC,pan12,1,1,0,0
n-Octylsilane,309.0,1,C(CCCCCCC)[SiH3],pan12,1,1,0,0
Aminoethylaminopropyltrimethoxysilane,369.0,1,NCCNCCC[Si](OC)(OC)OC,pan12,1,1,0,0
Octamethyltrisiloxane,303.0,1,C[Si](O[Si](O[Si](C)(C)C)(C)C)(C)C,pan12,1,1,0,0
Octamethylcyclotetrasiloxane,330.0,1,C[Si]1(O[Si](O[Si](O[Si](O1)(C)C)(C)C)(C)C)C,pan12,1,1,0,0
Octamethylcyclotetrasilazane,339.0,1,C[Si]1(N[Si](N[Si](N[Si](N1)(C)C)(C)C)(C)C)C,pan12,1,1,0,0
Tetrakisdimethylsiloxysilane,340.0,1,C[SiH](O[Si](O[SiH](C)C)(O[SiH](C)C)O[SiH](C)C)C,pan12,1,1,0,0
p-Chlorophenyltrimethylsilane,322.0,1,ClC1=CC=C(C=C1)[Si](C)(C)C,pan12,1,1,0,0
Methylphenyldimethoxysilane,349.0,1,C[Si](OC)(OC)C1=CC=CC=C1,pan12,1,1,0,0
Phenyltrimethoxysilane,358.0,1,C1(=CC=CC=C1)[Si](OC)(OC)OC,pan12,1,1,0,0