compound,flashpoint,pure substance,smiles,source,is_silicon,is_metallic,is_tin,is_acid
Cyclopentane,266.15,1,C1CCCC1,hazardous materials,0,0,0,0
Cyclopentanone,299.15,1,O=C1CCCC1,hazardous materials,0,0,0,0
p-Cymene,320.15,1,Cc1ccc(C(C)C)cc1,hazardous materials,0,0,0,0
Decahydronaphthalene,330.15,1,C1CCC2CCCCC2C1,hazardous materials,0,0,0,0
iso-Decaldehyde,358.15,1,CC(C)CCCCCCC=O,hazardous materials,0,0,0,0
n-Decane,319.15,1,CCCCCCCCCC,hazardous materials,0,0,0,0
n-Decyl alcohol,355.15,1,CCCCCCCCCCO,hazardous materials,0,0,0,0
Diacetone alcohol,337.15,1,CC(=O)CC(C)(C)O,hazardous materials,0,0,0,0
Dibutylamine,325.15,1,CCCCNCCCC,hazardous materials,0,0,0,0
Dibutyldichlorotin,628.15,1,CCCC[Sn](Cl)(Cl)CCCC,hazardous materials,0,1,1,0
Di-n-butyl ether,298.15,1,CCCCOCCCC,hazardous materials,0,0,0,0
Dibutyl oxalate,377.15,1,CCCCOC(=O)C(=O)OCCCC,hazardous materials,0,0,0,0
Dibutyl peroxide,291.15,1,CCCCOOCCCC,hazardous materials,0,0,0,0
Dibutyl phosphite,322.15,1,CCCCOP([O-])OCCCC,hazardous materials,0,0,0,0
Dibutyl phthalate,430.15,1,CCCCOC(=O)c1ccccc1C(=O)OCCCC,hazardous materials,0,0,0,0
Dibutyl tartrate,364.15,1,CCCCOC(=O)C(O)C(O)C(=O)OCCCC,hazardous materials,0,0,0,0
Dichloroacetyl chloride,339.15,1,O=C(Cl)C(Cl)Cl,hazardous materials,0,0,0,0
"2,5-Dichloroaniline",439.15,1,Nc1cc(Cl)ccc1Cl,hazardous materials,0,0,0,0
o-Dichlorobenzene,339.15,1,Clc1ccccc1Cl,hazardous materials,0,0,0,0
"1,4-Dichlorobutane",325.15,1,ClCCCCCl,hazardous materials,0,0,0,0
"1,3-Dichloro-2-butene",300.15,1,CC(Cl)=CCCl,hazardous materials,0,0,0,0
"1,1-Dichloroethane",267.15,1,CC(Cl)Cl,hazardous materials,0,0,0,0
"1,1-Dichloro-1-nitroethane",349.15,1,CC(Cl)(Cl)[N+](=O)[O-],hazardous materials,0,0,0,0
"2,4-Dichlorophenol",387.15,1,Oc1ccc(Cl)cc1Cl,hazardous materials,0,0,0,0
"1,2-Dichloropropane",289.15,1,CC(Cl)CCl,hazardous materials,0,0,0,0
"1,3-Dichloropropane",308.15,1,ClCCCCl,hazardous materials,0,0,0,0
Dicyclohexylamine,372.15,1,C1CCC(NC2CCCCC2)CC1,hazardous materials,0,0,0,0
Diethanolamine,425.15,1,OCCNCCO,hazardous materials,0,0,0,0
"N,N-Diethylaniline ",358.15,1,CCN(CC)c1ccccc1,hazardous materials,0,0,0,0
Diethylcarbonate,298.15,1,CCOC(=O)OCC,hazardous materials,0,0,0,0
Diethylene glycol,397.15,1,OCCOCCO,hazardous materials,0,0,0,0
Diethylene glycol-monoethyl ether,369.15,1,CCOCCOCCO,hazardous materials,0,0,0,0
Diethylenetriamine,375.15,1,NCCNCCN,hazardous materials,0,0,0,0
Diethyl ketone,286.15,1,CCC(=O)CC,hazardous materials,0,0,0,0
Diethyl malonate,366.15,1,CCOC(=O)CC(=O)OCC,hazardous materials,0,0,0,0
Diethyl sulphate,377.15,1,CCOS(=O)(=O)OCC,hazardous materials,0,0,0,0
"3,4-Dihydro-2H-pyran",255.15,1,C1=COCCC1,hazardous materials,0,0,0,0
Diisobutyl ketone,333.15,1,CC(C)CC(=O)CC(C)C,hazardous materials,0,0,0,0
Diisobutyl carbinol,347.15,1,CC(C)CC(O)CC(C)C,hazardous materials,0,0,0,0
Diisopropyl amine,272.15,1,CC(C)NC(C)C,hazardous materials,0,0,0,0
Diisopropyl ether,245.15,1,CC(C)OC(C)C,hazardous materials,0,0,0,0
Diisopropyl benzene,349.15,1,CC(C)c1ccccc1C(C)C,hazardous materials,0,0,0,0
Dimethoxyethane,313.15,1,COCCOC,hazardous materials,0,0,0,0
Dimethoxymethane,255.15,1,COCOC,hazardous materials,0,0,0,0
Dimethoxypropane,266.15,1,COC(C)(C)OC,hazardous materials,0,0,0,0
"N,N-Dimethyl acetamide ",350.15,1,CC(=O)N(C)C,hazardous materials,0,0,0,0
"N,N-Dimethylaniline ",336.15,1,CN(C)c1ccccc1,hazardous materials,0,0,0,0
"2,2-Dimethyl butane",225.15,1,CCC(C)(C)C,hazardous materials,0,0,0,0
"2,3-Dimethyl butane",244.15,1,CC(C)C(C)C,hazardous materials,0,0,0,0
Dimethyl carbonate,292.15,1,COC(=O)OC,hazardous materials,0,0,0,0
Dimethylformamide,331.15,1,CN(C)C=O,hazardous materials,0,0,0,0
Dimethyl phthalate,419.15,1,COC(=O)c1ccccc1C(=O)OC,hazardous materials,0,0,0,0
Dimethyl sulphate,356.15,1,COS(=O)(=O)OC,hazardous materials,0,0,0,0
Dimethyl sulphoxide,368.15,1,CS(C)=O,hazardous materials,0,0,0,0
m-Dinitrobenzene,423.15,1,O=[N+]([O-])c1cccc([N+](=O)[O-])c1,hazardous materials,0,0,0,0
o-Dinitrobenzene,423.15,1,O=[N+]([O-])c1ccccc1[N+](=O)[O-],hazardous materials,0,0,0,0
p-Dinitrobenzene,423.15,1,O=[N+]([O-])c1ccc([N+](=O)[O-])cc1,hazardous materials,0,0,0,0
"2,4-Dinitrotoluene",480.15,1,Cc1ccc([N+](=O)[O-])cc1[N+](=O)[O-],hazardous materials,0,0,0,0
Di-n-Octyl phthalate,492.15,1,CCCCCCCCOC(=O)c1ccccc1C(=O)OCCCCCCCC,hazardous materials,0,0,0,0
Di-sec-Octyl phthalate,491.15,1,CCCCCCC(C)OC(=O)c1ccccc1C(=O)OC(C)CCCCCC,hazardous materials,0,0,0,0
"1,4-Dioxane",285.15,1,C1COCCO1,hazardous materials,0,0,0,0
Diphenylamine,426.15,1,c1ccc(Nc2ccccc2)cc1,hazardous materials,0,0,0,0
Diphenylmethane,403.15,1,c1ccc(Cc2ccccc2)cc1,hazardous materials,0,0,0,0
Dipropylene glycol methyl ether,358.15,1,COC(C)COC(C)CO,hazardous materials,0,0,0,0
n-Dodecane,347.15,1,CCCCCCCCCCCC,hazardous materials,0,0,0,0
Epichlorohydrin,314.15,1,ClCC1CO1,hazardous materials,0,0,0,0
"1,2-Epoxy-propane",236.15,1,CC1CO1,hazardous materials,0,0,0,0
Ethanol,285.15,1,CCO,hazardous materials,0,0,0,0
Ethanolamine,358.15,1,NCCO,hazardous materials,0,0,0,0
Ethyl acetanilide,325.15,1,CCCC(=O)Nc1ccccc1,hazardous materials,0,0,0,0
Ethyl acetate,268.75,1,CCOC(C)=O,hazardous materials,0,0,0,0
Ethyl acetoacetate,357.15,1,CCOC(=O)CC(C)=O,hazardous materials,0,0,0,0
Ethyl acrylate,289.15,1,C=CC(=O)OCC,hazardous materials,0,0,0,0
Ethyl amyl ketone,330.15,1,CCCCCC(=O)CC,hazardous materials,0,0,0,0
n-Ethyl aniline,358.15,1,CCNc1ccccc1,hazardous materials,0,0,0,0
Ethyl benzene,288.15,1,CCc1ccccc1,hazardous materials,0,0,0,0
Ethyl bromoacetate,321.15,1,CCOC(=O)CBr,hazardous materials,0,0,0,0
Ethyl butyl ketone,319.15,1,CCCCC(=O)CC,hazardous materials,0,0,0,0
2-Ethyl butyraldehyde,294.15,1,CCC(C=O)CC,hazardous materials,0,0,0,0
Ethyl butyrate,299.15,1,CCCC(=O)OCC,hazardous materials,0,0,0,0
Ethyl chloride,223.15,1,CCCl,hazardous materials,0,0,0,0
Ethyl chloroacetate,339.15,1,CCOC(=O)CCl,hazardous materials,0,0,0,0
Ethyl chloroformate,289.15,1,CCOC(=O)Cl,hazardous materials,0,0,0,0
Ethyl crotonate,275.15,1,C/C=C/C(=O)OCC,hazardous materials,0,0,0,0
Ethyl cyanoacetate,383.15,1,CCOC(=O)CC#N,hazardous materials,0,0,0,0
Ethylene chlorohydrin,333.15,1,OCCCl,hazardous materials,0,0,0,0
Ethylene dichloride,286.15,1,ClCCCl,hazardous materials,0,0,0,0
Ethylene glycol,384.15,1,OCCO,hazardous materials,0,0,0,0
Ethyl ether,228.15,1,CCOCC,hazardous materials,0,0,0,0
Ethyl formate,253.15,1,CCOC=O,hazardous materials,0,0,0,0
2-Ethyl hexanol,357.15,1,CCCCC(CC)CO,hazardous materials,0,0,0,0
Ethyl lactate,319.15,1,CCOC(=O)C(C)O,hazardous materials,0,0,0,0
Ethyl methyl ether,236.15,1,CCOC,hazardous materials,0,0,0,0
N-Ethylmorpholine,305.15,1,CCN1CCOCC1,hazardous materials,0,0,0,0
Ethyl nitrite,238.15,1,CCON=O,hazardous materials,0,0,0,0
Ethyl oxalate,349.15,1,CCOC(=O)C(=O)[O-],hazardous materials,0,0,0,0
Ethyl propionate,285.15,1,CCOC(=O)CC,hazardous materials,0,0,0,0
2-Ethyl-3-propyl acrolein,341.15,1,CCCC=C(C=O)CC,hazardous materials,0,0,0,0
Ethyl silicate,325.15,1,CCO[Si]([O-])([O-])[O-],hazardous materials,1,1,0,0
Formamide,428.15,1,NC=O,hazardous materials,0,0,0,0
Furfural,333.15,1,O=Cc1ccco1,hazardous materials,0,0,0,0
Furfuryl alcohol,348.15,1,OCc1ccco1,hazardous materials,0,0,0,0
Glycerol,433.15,1,OCC(O)CO,hazardous materials,0,0,0,0
Heptane,269.15,1,CCCCCCC,hazardous materials,0,0,0,0
n-Heptylamine,327.15,1,CCCCCCCN,hazardous materials,0,0,0,0
Hexachlorobenzene,515.15,1,Clc1c(Cl)c(Cl)c(Cl)c(Cl)c1Cl,hazardous materials,0,0,0,0
"2,4-Hexadienal",341.15,1,CC=CC=CC=O,hazardous materials,0,0,0,0
"1,4-Hexadiene",252.15,1,C=CCC=CC,hazardous materials,0,0,0,0
Hexane,251.15,1,CCCCCC,hazardous materials,0,0,0,0
n-Hexanol,333.15,1,CCCCCCO,hazardous materials,0,0,0,0
sec-Hexyl acetate,318.15,1,CCCCC(C)OC(C)=O,hazardous materials,0,0,0,0
Hexyl amine,302.15,1,CCCCCCN,hazardous materials,0,0,0,0
Hydroquinone monomethyl ether,404.15,1,COc1ccc(O)cc1,hazardous materials,0,0,0,0
Isoprene,219.15,1,C=CC(=C)C,hazardous materials,0,0,0,0
Lactonitrile,350.15,1,CC(O)C#N,hazardous materials,0,0,0,0
Maleic anhydride,375.15,1,O=C1C=CC(=O)O1,hazardous materials,0,0,0,0
"p-Mentha-1,8-diene",318.15,1,C=C(C)C1CC=C(C)CC1,hazardous materials,0,0,0,0
2-Mercaptoethanol,347.15,1,OCCS,hazardous materials,0,0,0,0
Mesityl oxide,304.15,1,CC(=O)C=C(C)C,hazardous materials,0,0,0,0
Methyl acetate,264.15,1,COC(C)=O,hazardous materials,0,0,0,0
Methyl acrylate,270.15,1,C=CC(=O)OC,hazardous materials,0,0,0,0
Methyl alcohol,285.15,1,CO,hazardous materials,0,0,0,0
Methyl amyl alcohol,314.15,1,CCCCC(C)O,hazardous materials,0,0,0,0
N-Methylbutylamine,286.15,1,CCCCNC,hazardous materials,0,0,0,0
Methyl butyl ketone,308.15,1,CCCCC(C)=O,hazardous materials,0,0,0,0
Methyl butyrate,287.15,1,CCCC(=O)OC,hazardous materials,0,0,0,0
Methyl chloroformate,285.15,1,COC(=O)Cl,hazardous materials,0,0,0,0
Methyl cyclohexane,269.15,1,CC1CCCCC1,hazardous materials,0,0,0,0
2-Methyl cyclohexanone,321.15,1,CC1CCCCC1=O,hazardous materials,0,0,0,0
4-Methyl cyclohexene,272.15,1,CC1CC=CCC1,hazardous materials,0,0,0,0
Methyl ether,232.15,1,COC,hazardous materials,0,0,0,0
Methyl ethyl ether,236.15,1,CCOC,hazardous materials,0,0,0,0
Methyl ethyl ketone,266.15,1,CCC(C)=O,hazardous materials,0,0,0,0
Methyl formate,254.15,1,COC=O,hazardous materials,0,0,0,0
2-Methyl furan,243.15,1,Cc1ccco1,hazardous materials,0,0,0,0
Methyl isobutyl ketone,296.15,1,CC(=O)CC(C)C,hazardous materials,0,0,0,0
Methyl isobutyrate,286.15,1,COC(=O)C(C)C,hazardous materials,0,0,0,0
Methyl methacrylate,283.15,1,C=C(C)C(=O)OC,hazardous materials,0,0,0,0
Methyl-n-Propyl ketone,280.15,1,CCCC(C)=O,hazardous materials,0,0,0,0
Methyl salicylate,374.15,1,COC(=O)c1ccccc1O,hazardous materials,0,0,0,0
Methyl vinyl ether,222.15,1,C=COC,hazardous materials,0,0,0,0
Monomethylamine,263.15,1,CN,hazardous materials,0,0,0,0
Morpholine,311.15,1,C1COCCN1,hazardous materials,0,0,0,0
Naphthalene,352.15,1,c1ccc2ccccc2c1,hazardous materials,0,0,0,0
2-Naphthol,426.15,1,Oc1ccc2ccccc2c1,hazardous materials,0,0,0,0
1-Naphthylamine,430.15,1,Nc1cccc2ccccc12,hazardous materials,0,0,0,0
o-Nitroaniline,441.15,1,Nc1ccccc1[N+](=O)[O-],hazardous materials,0,0,0,0
p-Nitroaniline,472.15,1,Nc1ccc([N+](=O)[O-])cc1,hazardous materials,0,0,0,0
Nitrobenzene,361.15,1,O=[N+]([O-])c1ccccc1,hazardous materials,0,0,0,0
o-Nitrobiphenyl,416.15,1,O=[N+]([O-])c1ccccc1-c1ccccc1,hazardous materials,0,0,0,0
Nitroethane,311.15,1,CC[N+](=O)[O-],hazardous materials,0,0,0,0
Nitromethane,308.15,1,C[N+](=O)[O-],hazardous materials,0,0,0,0
alpha-Nitronaphthalene,437.15,1,O=[N+]([O-])c1cccc2ccccc12,hazardous materials,0,0,0,0
1-Nitropropane,322.15,1,CCC[N+](=O)[O-],hazardous materials,0,0,0,0
2-Nitropropane,312.15,1,CC(C)[N+](=O)[O-],hazardous materials,0,0,0,0
m-Nitrotoluene,379.15,1,Cc1cccc([N+](=O)[O-])c1,hazardous materials,0,0,0,0
o-Nitrotoluene,379.15,1,Cc1ccccc1[N+](=O)[O-],hazardous materials,0,0,0,0
p-Nitrotoluene,379.15,1,Cc1ccc([N+](=O)[O-])cc1,hazardous materials,0,0,0,0
Nonyl phenol,414.15,1,CCCCCCCCCc1ccccc1O,hazardous materials,0,0,0,0
Octane,286.15,1,CCCCCCCC,hazardous materials,0,0,0,0
Octanoic acid,405.15,1,CCCCCCCC(=O)O,hazardous materials,0,0,0,1
1-Octanol,354.15,1,CCCCCCCCO,hazardous materials,0,0,0,0
2-Octanol,361.15,1,CCCCCCC(C)O,hazardous materials,0,0,0,0
n-Pentane,224.15,1,CCCCC,hazardous materials,0,0,0,0
iso-Pentane,222.15,1,CCC(C)C,hazardous materials,0,0,0,0
"1,5-Pentanediol",408.15,1,OCCCCCO,hazardous materials,0,0,0,0
"2,4-Pentanedione",314.15,1,CC(=O)CC(C)=O,hazardous materials,0,0,0,0
2-Pentanol,312.15,1,CCCC(C)O,hazardous materials,0,0,0,0
Phenol,352.15,1,Oc1ccccc1,hazardous materials,0,0,0,0
Phenyl acetate,353.15,1,CC(=O)Oc1ccccc1,hazardous materials,0,0,0,0
p-Phenylenediamine,429.15,1,Nc1ccc(N)cc1,hazardous materials,0,0,0,0
Phenylethanolamine,425.15,1,NCC(O)c1ccccc1,hazardous materials,0,0,0,0
Phenyl ether,369.15,1,c1ccc(Oc2ccccc2)cc1,hazardous materials,0,0,0,0
Phenylhydrazine,362.15,1,NNc1ccccc1,hazardous materials,0,0,0,0
o-Phenyl phenol,397.15,1,Oc1ccccc1-c1ccccc1,hazardous materials,0,0,0,0
Phorone,358.15,1,CC(C)=CC(=O)C=C(C)C,hazardous materials,0,0,0,0
Phthalic anhydride,424.15,1,O=C1OC(=O)c2ccccc21,hazardous materials,0,0,0,0
2-Picoline,312.15,1,Cc1ccccn1,hazardous materials,0,0,0,0
4-Picoline,330.15,1,Cc1ccncc1,hazardous materials,0,0,0,0
2-Pinene,306.15,1,CC1=CCC2CC1C2(C)C,hazardous materials,0,0,0,0
Piperidine,289.15,1,C1CCNCC1,hazardous materials,0,0,0,0
Piperylene,230.15,1,C=CC=CC,hazardous materials,0,0,0,0
"1,3-Propanediamine",297.15,1,NCCCN,hazardous materials,0,0,0,0
"1,2-Propanediol",372.15,1,CC(O)CO,hazardous materials,0,0,0,0
Propargyl alcohol,309.15,1,C#CCO,hazardous materials,0,0,0,0
Propargyl bromide,283.15,1,C#CCBr,hazardous materials,0,0,0,0
iso-Propenyl acetate,289.15,1,C=C(C)OC(C)=O,hazardous materials,0,0,0,0
Propionaldehyde,264.15,1,CCC=O,hazardous materials,0,0,0,0
Propionic acid,327.15,1,CCC(=O)O,hazardous materials,0,0,0,1
Propionitrile,275.15,1,CCC#N,hazardous materials,0,0,0,0
Propionyl chloride,285.15,1,CCC(=O)Cl,hazardous materials,0,0,0,0
iso-Propyl acetate,277.15,1,CC(=O)OC(C)C,hazardous materials,0,0,0,0
n-Propyl acetate,287.15,1,CCCOC(C)=O,hazardous materials,0,0,0,0
n-Propyl alcohol,288.15,1,CCCO,hazardous materials,0,0,0,0
iso-Propyl alcohol,285.15,1,CC(C)O,hazardous materials,0,0,0,0
Propylamine,236.15,1,CCCN,hazardous materials,0,0,0,0
iso-Propylamine,236.15,1,CC(C)N,hazardous materials,0,0,0,0
Propyl benzene,303.15,1,CCCc1ccccc1,hazardous materials,0,0,0,0
iso-Propyl benzoate,372.15,1,CC(C)OC(=O)c1ccccc1,hazardous materials,0,0,0,0
Propylene,165.15,1,C=CC,hazardous materials,0,0,0,0
Propylene carbonate,408.15,1,CC1COC(=O)O1,hazardous materials,0,0,0,0
iso-Propyl ether,245.15,1,CC(C)OC(C)C,hazardous materials,0,0,0,0
n-Propyl formate,270.15,1,CCCOC=O,hazardous materials,0,0,0,0
iso-Propyl formate,267.15,1,CC(C)OC=O,hazardous materials,0,0,0,0
Propyl nitrate,293.15,1,CCCO[N+](=O)[O-],hazardous materials,0,0,0,0
Pyridine,293.15,1,c1ccncc1,hazardous materials,0,0,0,0
Pyrrolidine,276.15,1,C1CCNC1,hazardous materials,0,0,0,0
Pyruvic acid,276.15,1,CC(=O)C(=O)O,hazardous materials,0,0,0,1
Resorcinol,400.15,1,Oc1cccc(O)c1,hazardous materials,0,0,0,0
Salicylaldehyde,351.15,1,O=Cc1ccccc1O,hazardous materials,0,0,0,0
Stearic acid,469.15,1,CCCCCCCCCCCCCCCCCC(=O)O,hazardous materials,0,0,0,1
Styrene,304.15,1,C=Cc1ccccc1,hazardous materials,0,0,0,0
Succinonitrile,405.15,1,N#CCCC#N,hazardous materials,0,0,0,0
m-Terphenyl,408.15,1,c1ccc(-c2cccc(-c3ccccc3)c2)cc1,hazardous materials,0,0,0,0
o-Terphenyl,436.15,1,c1ccc(-c2ccccc2-c2ccccc2)cc1,hazardous materials,0,0,0,0
"1,2,4,5-Tetrachlorobenzene",428.15,1,Clc1cc(Cl)c(Cl)cc1Cl,hazardous materials,0,0,0,0
Tetradecane,373.15,1,CCCCCCCCCCCCCC,hazardous materials,0,0,0,0
Tetraethylenepentamine,436.15,1,NCCNCCNCCNCCN,hazardous materials,0,0,0,0
Tetraethyl lead,366.15,1,CC[Pb](CC)(CC)CC,hazardous materials,0,1,0,0
Tetrahydrofuran,259.15,1,C1CCOC1,hazardous materials,0,0,0,0
Tetrahydronaphthalene,344.15,1,c1ccc2c(c1)CCCC2,hazardous materials,0,0,0,0
"2,2'-Thiodiethanol",433.15,1,OCCSCCO,hazardous materials,0,0,0,0
Thiophene,272.15,1,c1ccsc1,hazardous materials,0,0,0,0
Toluene,277.55,1,Cc1ccccc1,hazardous materials,0,0,0,0
m-Toluidine,359.15,1,Cc1cccc(N)c1,hazardous materials,0,0,0,0
o-Toluidine,358.15,1,Cc1ccccc1N,hazardous materials,0,0,0,0
p-Toluidine,360.15,1,Cc1ccc(N)cc1,hazardous materials,0,0,0,0
Triamylamine,375.15,1,CCCCCN(CCCCC)CCCCC,hazardous materials,0,0,0,0
Tri-n-butyl amine,359.15,1,CCCCN(CCCC)CCCC,hazardous materials,0,0,0,0
Tributyl phosphate,419.15,1,CCCCOP(=O)(OCCCC)OCCCC,hazardous materials,0,0,0,0
"1,2,4-Trichlorobenzene",372.15,1,Clc1ccc(Cl)c(Cl)c1,hazardous materials,0,0,0,0
"1,2,3-Trichloropropane",355.15,1,ClCC(Cl)CCl,hazardous materials,0,0,0,0
Tridecanol,394.15,1,CCCCCCCCCCCCCO,hazardous materials,0,0,0,0
Triethanolamine,452.15,1,OCCN(CCO)CCO,hazardous materials,0,0,0,0
Triethylene glycol,450.15,1,OCCOCCOCCO,hazardous materials,0,0,0,0
Triethylene-tetramine,408.15,1,NCCNCCNCCN,hazardous materials,0,0,0,0
Trimethyl amine,266.15,1,CN(C)C,hazardous materials,0,0,0,0
"2,2,4-Trimethyl pentane",261.15,1,CC(C)CC(C)(C)C,hazardous materials,0,0,0,0
"2,4,4-Trimethyl-2-pentene",275.15,1,CC(C)=CC(C)(C)C,hazardous materials,0,0,0,0
"1,3,5-Trioxane",318.15,1,C1OCOCO1,hazardous materials,0,0,0,0
Triphenyl phosphate,493.15,1,O=P(Oc1ccccc1)(Oc1ccccc1)Oc1ccccc1,hazardous materials,0,0,0,0
Triphenyl phosphine,453.15,1,c1ccc(P(c2ccccc2)c2ccccc2)cc1,hazardous materials,0,0,0,0
Tripropylamine,314.15,1,CCCN(CCC)CCC,hazardous materials,0,0,0,0
Tritolyl phosphate,498.15,1,Cc1ccccc1OP(=O)(Oc1ccccc1C)Oc1ccccc1C,hazardous materials,0,0,0,0
Valeraldehyde,285.15,1,CCCCC=O,hazardous materials,0,0,0,0
Valeric acid,369.15,1,CCCCC(=O)O,hazardous materials,0,0,0,1
Vinyl acetate,265.15,1,C=COC(C)=O,hazardous materials,0,0,0,0
Vinyl chloride,195.15,1,C=CCl,hazardous materials,0,0,0,0
Vinylidene chloride,258.15,1,C=C(Cl)Cl,hazardous materials,0,0,0,0
m-Xylene,302.15,1,Cc1cccc(C)c1,hazardous materials,0,0,0,0
o-Xylene,305.15,1,Cc1ccccc1C,hazardous materials,0,0,0,0
p-Xylene,300.15,1,Cc1ccc(C)cc1,hazardous materials,0,0,0,0
Xylidine,370.15,1,Cc1cccc(N)c1C,hazardous materials,0,0,0,0
Ethylene,137.15,1,C=C,le15,0,0,0,0
Ethane,138.0,1,CC,le15,0,0,0,0
Methylamine,211.0,1,CN,le15,0,0,0,0
Methanol,284.26099999999997,1,CO,le15,0,0,0,0
1propyne,185.15,1,C#CC,le15,0,0,0,0
Acetonitrile,275.15,1,CC#N,le15,0,0,0,0
Cyanamide,274.35,1,N#CN,le15,0,0,0,0
Propene,165.15,1,C=CC,le15,0,0,0,0
Cyclopropane,178.0,1,C1CC1,le15,0,0,0,0
Propene,165.0,1,C=CC,le15,0,0,0,0
propane,169.15,1,CCC,le15,0,0,0,0
Formamide,448.15,1,NC=O,le15,0,0,0,0
Monoethylamine,256.15,1,CCN,le15,0,0,0,0
Dimethylamine,255.0,1,CNC,le15,0,0,0,0
Ethylamine,256.0,1,CCN,le15,0,0,0,0
Formicacid,342.0,1,O=CO,le15,0,0,0,1
"Hydrazine, methyl-",294.15,1,CNN,le15,0,0,0,0
Methyl hydroperoxide,274.25,1,COO,le15,0,0,0,0
Methanethiol,255.0,1,CS,le15,0,0,0,0
Propiononitrile,279.15,1,CCC#N,le15,0,0,0,0
2propyn1ol,306.0,1,C#CCO,le15,0,0,0,0
2-aminoacetonitrile,326.25,1,N#CCN,le15,0,0,0,0
(Z)-but-2-ene,200.35,1,C/C=C\C,le15,0,0,0,0
1butene,193.0,1,C=CCC,le15,0,0,0,0
Cyclobutane,208.0,1,C1CCC1,le15,0,0,0,0
Isobutene,197.0,1,C=C(C)C,le15,0,0,0,0
"Acetonitrile, hydroxy-",329.25,1,N#CCO,le15,0,0,0,0
Cyclopropanamine,274.15,1,NC1CC1,le15,0,0,0,0
2-Propen-1-amine,245.15,1,C=CCN,le15,0,0,0,0
Cyclopropylamine,248.0,1,NC1CC1,le15,0,0,0,0
Trimethylene oxide (8CI),253.15,1,C1COC1,le15,0,0,0,0
2propene1ol,294.0,1,C=CCO,le15,0,0,0,0
PropyleneOxide,236.0,1,CC1CO1,le15,0,0,0,0
"Acetaldehyde, oxime",313.15,1,CC=NO,le15,0,0,0,0
propylamine,247.0,1,CCCN,le15,0,0,0,0
Trimethylamine,267.0,1,CN(C)C,le15,0,0,0,0
Hydrazinecarboxaldehyde,385.15,1,NNC=O,le15,0,0,0,0
Isopropyl alcohol,284.817,1,CC(C)O,le15,0,0,0,0
"Hydrazine, 1,1-dimethyl-",274.25,1,CN(C)N,le15,0,0,0,0
Ethylene sulfide,283.15,1,C1CS1,le15,0,0,0,0
"Methane, nitro-",308.15,1,C[N+](=O)[O-],le15,0,0,0,0
"Ethanol, 2-amino-",366.45,1,NCCO,le15,0,0,0,0
"Hydroperoxide, ethyl",284.45,1,CCOO,le15,0,0,0,0
Ethylene glycol,381.35,1,OCCO,le15,0,0,0,0
"Ethylene, chloro-",255.35,1,C=CCl,le15,0,0,0,0
"Ethanol, 2-fluoro-",304.25,1,OCCF,le15,0,0,0,0
"2-Propenenitrile, 2-methyl-",285.15,1,C=C(C)C#N,le15,0,0,0,0
"Isocrotononitrile (6CI,7CI)",293.15,1,C/C=C\C#N,le15,0,0,0,0
2-Butenenitrile,289.15,1,CC=CC#N,le15,0,0,0,0
Methacrylonitrile,274.0,1,C=C(C)C#N,le15,0,0,0,0
Pyrrole,306.0,1,c1cc[nH]c1,le15,0,0,0,0
but-3-yn-2-one,272.15,1,C#CC(C)=O,le15,0,0,0,0
Furan,238.0,1,c1ccoc1,le15,0,0,0,0
1H-Imidazole,418.15,1,c1c[nH]cn1,le15,0,0,0,0
1pentyne,239.0,1,C#CCCC,le15,0,0,0,0
2pentyne,243.0,1,CC#CCC,le15,0,0,0,0
Cyclopentene,273.0,1,C1=CCCC1,le15,0,0,0,0
"1,2-oxazole",282.05,1,c1cnoc1,le15,0,0,0,0
"1,3-oxazole",292.039,1,c1cocn1,le15,0,0,0,0
2H-triazole,380.15,1,c1cn[nH]n1,le15,0,0,0,0
"1H-1,2,4-Triazole",412.25,1,c1nc[nH]n1,le15,0,0,0,0
"Propanenitrile, 2-methyl-",281.15,1,CC(C)C#N,le15,0,0,0,0
Butanenitrile,289.15,1,CCCC#N,le15,0,0,0,0
"2,5-dihydro-1H-pyrrole",278.95,1,C1=CCNC1,le15,0,0,0,0
"2-Propyn-1-amine, N-methyl-",273.75,1,C#CCNC,le15,0,0,0,0
2-Propynoic acid,332.05,1,C#CC(=O)O,le15,0,0,0,1