compound,flashpoint,pure substance,smiles,source,is_silicon,is_metallic,is_tin,is_acid
"Pregn-4-en-20-yn-3-one, 17-hydroxy-, (17alpha)- (9CI)",463.35,1,C#C[C@@]1(O)CC[C@H]2[C@@H]3CCC4=CC(=O)CC[C@]4(C)[C@H]3CC[C@@]21C,le15,0,0,0,0
"10H-Phenothiazine-10-ethanamine, N,N-diethyl-alpha-methyl-",487.05,1,CCN(CC)C(C)CN1c2ccccc2Sc2ccccc21,le15,0,0,0,0
"Octadecanoic acid, ethyl ester",434.15,1,CCCCCCCCCCCCCCCCCC(=O)OCC,le15,0,0,0,1
icosanoic acid,442.85,1,CCCCCCCCCCCCCCCCCCCC(=O)O,le15,0,0,0,1
"p-Xylene, alpha,alpha,alpha,alpha',alpha',alpha'-hexachloro-",426.15,1,ClC(Cl)(Cl)c1ccc(C(Cl)(Cl)Cl)cc1,le15,0,0,0,0
"Benzoic acid, 2-(acetyloxy)-, 4-(acetylamino)phenyl ester (9CI)",552.15,1,CC(=O)Nc1ccc(OC(=O)c2ccccc2OC(C)=O)cc1,le15,0,0,0,1
2-Methyl-1-(phenylamino)anthraquinone,464.95,1,Cc1ccc2c(c1Nc1ccccc1)C(=O)c1ccccc1C2=O,le15,0,0,0,0
"Theophylline, 7-(p-(dimethylamino)benzyl)-",551.05,1,CN(C)c1ccc(Cn2cnc3c2c(=O)n(C)c(=O)n3C)cc1,le15,0,0,0,0
"3H-Pyrazol-3-one, 1,2-dihydro-4-iodo-1,5-dimethyl-2-phenyl-",424.05,1,Cc1c(I)c(=O)n(-c2ccccc2)n1C,le15,0,0,0,0
"Ethanol, 2,2'-oxybis-, dibenzoate",446.15,1,O=C(O)c1ccccc1.O=C(O)c1ccccc1.OCCOCCO,le15,0,0,0,0
"Benz(a)anthracene-7-methanol, 12-methyl-, acetate",474.85,1,CC(=O)OCc1c2ccccc2c(C)c2c1ccc1ccccc12,le15,0,0,0,0
"Pregn-4-ene-3,20-dione",439.85,1,CC(=O)[C@H]1CC[C@H]2[C@@H]3CCC4=CC(=O)CC[C@]4(C)[C@H]3CC[C@]12C,le15,0,0,0,0
"Decanedioic acid, dibutyl ester",430.65,1,CCCCOC(=O)CCCCCCCCC(=O)OCCCC,le15,0,0,0,1
dihexyl hexanedioate,430.65,1,CCCCCCOC(=O)CCCCC(=O)OCCCCCC,le15,0,0,0,0
"Phosphorotrithioic acid, S,S,S-tributyl ester",473.55,1,CCCCSP(=O)(SCCCC)SCCCC,le15,0,0,0,1
"Benzene, 1,2,4-tribromo-",393.15,1,Brc1ccc(Br)c(Br)c1,le15,0,0,0,0
"Benzene, 1,3,5-tribromo-",388.65,1,Brc1cc(Br)cc(Br)c1,le15,0,0,0,0
"Phosphorothioic acid, O-(2,4-dichlorophenyl) O,O-diethyl ester",373.15,1,CCOP(=S)(OCC)Oc1ccc(Cl)cc1Cl,le15,0,0,0,1
"9H-Fluoren-9-one, 2,4,7-trinitro-",565.45,1,O=C1c2cc([N+](=O)[O-])ccc2-c2c1cc([N+](=O)[O-])cc2[N+](=O)[O-],le15,0,0,0,0
"Phenol, 2,2'-thiobis(4-chloro-6-methyl- (9CI)",485.85,1,Cc1cc(Cl)cc(Sc2cc(Cl)cc(C)c2O)c1O,le15,0,0,0,0
"Urea, N-(4-chlorophenyl)-N'-(3,4-dichlorophenyl)-",435.15,1,O=C(Nc1ccc(Cl)cc1)Nc1ccc(Cl)c(Cl)c1,le15,0,0,0,0
"2H-1,4-Benzodiazepin-2-one, 5-(2-chlorophenyl)-1,3-dihydro-7-nitro-",544.15,1,O=C1CN=C(c2ccccc2Cl)c2cc([N+](=O)[O-])ccc2N1,le15,0,0,0,0
"2H-1,4-Benzodiazepin-2-one, 7-bromo-1,3-dihydro-5-(2-pyridinyl)-",523.75,1,O=C1CN=C(c2ccccn2)c2cc(Br)ccc2N1,le15,0,0,0,0
"Benzenesulfonanilide, 4,4'-dichloro-N-methyl-",495.85,1,CN(c1ccc(Cl)cc1)S(=O)(=O)c1ccc(Cl)cc1,le15,0,0,0,0
"4H-1-Benzopyran-4-one, 3,5,7-trihydroxy-2-(4-hydroxy-3-methoxyphenyl)-",500.95,1,COc1cc(-c2oc3cc(O)cc(O)c3c(=O)c2O)ccc1O,le15,0,0,0,0
"Diazene, bis(2-methyl-3-nitrophenyl)-, 1-oxide",535.05,1,Cc1c(N=[N+]([O-])c2cccc([N+](=O)[O-])c2C)cccc1[N+](=O)[O-],le15,0,0,0,0
"1,5-Naphthalenediol, 2,6-dibromo-",467.35,1,Oc1c(Br)ccc2c(O)c(Br)ccc12,le15,0,0,0,0
"Benzene, 1-chloro-2-(2,2-dichloro-1-(4-chlorophenyl)ethenyl)- (9CI)",454.95,1,ClC(Cl)=C(c1ccc(Cl)cc1)c1ccccc1Cl,le15,0,0,0,0
"1(3H)-Isobenzofuranone, 3,3-bis(4-hydroxyphenyl)-",479.65,1,O=C1OC(c2ccc(O)cc2)(c2ccc(O)cc2)c2ccccc21,le15,0,0,0,0
"1,2-Benzenedicarboxylic acid, diphenyl ester",528.45,1,O=C(Oc1ccccc1)c1ccccc1C(=O)Oc1ccccc1,le15,0,0,0,1
"Benzoxazole, 2,2'-(2,5-thiophenediyl)bis-",509.05,1,c1ccc2oc(-c3ccc(-c4nc5ccccc5o4)s3)nc2c1,le15,0,0,0,0
"Ether, p-nitrophenyl 2,4,6-trichlorophenyl",450.95,1,O=[N+]([O-])c1ccc(Oc2c(Cl)cc(Cl)cc2Cl)cc1,le15,0,0,0,0
"10H-Phenothiazine-10-propanamine, 2-chloro-N,N-dimethyl-",499.15,1,CN(C)CCCN1c2ccccc2Sc2ccc(Cl)cc21,le15,0,0,0,0
"2-Pyridinepropanamine, gamma-(4-bromophenyl)-N,N-dimethyl-",470.65,1,CN(C)CCC(c1ccc(Br)cc1)c1ccccn1,le15,0,0,0,0
1-bromoheptadecane,418.55,1,CCCCCCCCCCCCCCCCCBr,le15,0,0,0,0
"2(5H)-Furanone, 5,5'-oxybis(3,4-dichloro-",498.55,1,O=C1OC(OC2OC(=O)C(Cl)=C2Cl)C(Cl)=C1Cl,le15,0,0,0,0
"Ethane, 1,1-dichloro-2-(o-chlorophenyl)-2-(p-chlorophenyl)- (8CI)",467.35,1,Clc1ccc(C(c2ccccc2Cl)C(Cl)Cl)cc1,le15,0,0,0,0
"L-Valine, N-((2,4-dichlorophenoxy)acetyl)- (9CI)",553.75,1,CC(C)[C@H](NC(=O)COc1ccc(Cl)cc1Cl)C(=O)O,le15,0,0,0,0
"Phosphorothioic acid, O-cyclohexyl O-methyl S-(4-chlorophenyl) ester",471.75,1,COP(=O)(OC1CCCCC1)Sc1ccc(Cl)cc1,le15,0,0,0,1
"2,3,5-tribromothiophene",387.65,1,Brc1cc(Br)c(Br)s1,le15,0,0,0,0
"Acetic acid, (2,4-dichlorophenoxy)-, 2-butoxyethyl ester (8CI,9CI)",426.05,1,CCCCOCCOC(=O)COc1ccc(Cl)cc1Cl,le15,0,0,0,1
"Phosphorothioic acid, O,O-dimethyl O-(2,4,5-trichlorophenyl) ester",435.45,1,COP(=S)(OC)Oc1cc(Cl)c(Cl)cc1Cl,le15,0,0,0,1
"Dibenzo(b,e)(1,4)dioxin, 2,3,7,8-tetrachloro-",437.35,1,Clc1cc2c(cc1Cl)Oc1cc(Cl)c(Cl)cc1O2,le15,0,0,0,0
"Glycine, N,N'-(2-hydroxy-1,3-propanediyl)bis(N-(carboxymethyl)-",628.75,1,O=C(O)CN(CC(=O)O)CC(O)CN(CC(=O)O)CC(=O)O,le15,0,0,0,0
"2-Butenoic acid, 3-methyl-, 2-(1-methylpropyl)-4,6-dinitrophenyl ester",444.85,1,CCC(C)c1cc([N+](=O)[O-])cc([N+](=O)[O-])c1OC(=O)C=C(C)C,le15,0,0,0,1
"Phosphoric acid, bis(2-ethylhexyl) ester",464.85,1,CCCCC(CC)COP(=O)([O-])OCC(CC)CCCC,le15,0,0,0,1
heptadecylcyclohexane,461.25,1,CCCCCCCCCCCCCCCCCC1CCCCC1,le15,0,0,0,0
"9-Tricosene, (9Z)-",482.05,1,CCCCCCCC/C=C\CCCCCCCCCCCCC,le15,0,0,0,0
"2,5-bis(trichloromethyl)-1,3-dioxolan-4-one",395.05,1,O=C1OC(C(Cl)(Cl)Cl)OC1C(Cl)(Cl)Cl,le15,0,0,0,0
"Phosphonothioic acid, phenyl-, O-ethyl O-(4-nitrophenyl) ester",489.75,1,CCOP(=S)(Oc1ccc([N+](=O)[O-])cc1)c1ccccc1,le15,0,0,0,1
"Dibenzo(b,f)(1,4)thiazepine, 2-methyl-11-(4-methyl-1-piperazinyl)-",513.35,1,Cc1ccc2c(c1)C(N1CCN(C)CC1)=Nc1ccccc1S2,le15,0,0,0,0
"1H-Benzimidazole, 4,5,6,7-tetrachloro-2-(trifluoromethyl)-",468.55,1,FC(F)(F)c1nc2c(Cl)c(Cl)c(Cl)c(Cl)c2[nH]1,le15,0,0,0,0
"Benzene, 1,2,4-trichloro-5-((4-chlorophenyl)thio)-",459.05,1,Clc1ccc(Sc2cc(Cl)c(Cl)cc2Cl)cc1,le15,0,0,0,0
"Butane, 1,1-bis(p-chlorophenyl)-2-nitro-",495.85,1,CCC(C(c1ccc(Cl)cc1)c1ccc(Cl)cc1)[N+](=O)[O-],le15,0,0,0,0
"1,3-Propanediamine, N,N-dimethyl-N'-(1-nitro-9-acridinyl)- (9CI)",542.65,1,CN(C)CCCNc1c2ccccc2nc2cccc([N+](=O)[O-])c12,le15,0,0,0,0
"Cinchonan-9-ol, 6'-methoxy-, (9S)-",526.85,1,C=C[C@H]1CN2CC[C@H]1C[C@@H]2[C@@H](O)c1ccnc2ccc(OC)cc12,le15,0,0,0,0
tricosane,495.95,1,CCCCCCCCCCCCCCCCCCCCCCC,le15,0,0,0,0
"2,2,2-tribromoethyl acetate",402.85,1,CC(=O)OCC(Br)(Br)Br,le15,0,0,0,0
"1-Propanol, 3-bromo-2,2-bis(bromomethyl)- (8CI)(9CI)",426.95,1,OCC(CBr)(CBr)CBr,le15,0,0,0,0
"Phosphorothioic acid, O-(3-chloro-4-nitrophenyl) O,O-diethyl ester",464.65,1,CCOP(=S)(OCC)Oc1ccc([N+](=O)[O-])c(Cl)c1,le15,0,0,0,1
"2H-1,2,4-Benzothiadiazine-7-sulfonamide, 6-chloro-3-ethyl-3,4-dihydro-",567.75,1,CCC1NSc2cc(S(N)(=O)=O)c(Cl)cc2N1,le15,0,0,0,0
"Anthraquinone, 1,4-bis((2-hydroxyethyl)amino)- (6CI,7CI,8CI)",623.55,1,O=C1c2ccccc2C(=O)c2c(NCCO)ccc(NCCO)c21,le15,0,0,0,0
"2-(4-Methoxyphenyl)-4,5-diphenyl-1H-imidazole",461.95,1,COc1ccc(-c2nc(-c3ccccc3)c(-c3ccccc3)[nH]2)cc1,le15,0,0,0,0
"1-Butanone, 1-(4-fluorophenyl)-4-(4-phenyl-1-piperazinyl)- (9CI)",517.95,1,O=C(CCCN1CCN(c2ccccc2)CC1)c1ccc(F)cc1,le15,0,0,0,0
"Methanone, (2-hydroxy-4-(octyloxy)phenyl)phenyl-",428.25,1,CCCCCCCCOc1ccc(C(=O)c2ccccc2)c(O)c1,le15,0,0,0,0
"10H-Phenothiazine, 10-(3-(4-morpholinyl)propyl)-",521.25,1,c1ccc2c(c1)Sc1ccccc1N2CCCN1CCOCC1,le15,0,0,0,0
"5H-Dibenzo(b,e)(1,4)diazepine, 8-chloro-11-(4-methyl-1-piperazinyl)-",522.785,1,CN1CCN(C2=Nc3cc(Cl)ccc3Nc3ccccc32)CC1,le15,0,0,0,0
"Benzamide, 5-chloro-N-(2-chloro-4-nitrophenyl)-2-hydroxy-",483.65,1,O=C(Nc1ccc([N+](=O)[O-])cc1Cl)c1cc(Cl)ccc1O,le15,0,0,0,0
"Morphinan-6-one, 17-allyl-4,5alpha-epoxy-3,14-dihydroxy- (8CI)",549.25,1,C=CCN1CC[C@]23c4c5ccc(O)c4O[C@H]2C(=O)CC[C@@]3(O)[C@H]1C5,le15,0,0,0,0
"1-Butanone, 1-(4-fluorophenyl)-4-(4-(2-pyridinyl)-1-piperazinyl)-",529.05,1,O=C(CCCN1CCN(c2ccccn2)CC1)c1ccc(F)cc1,le15,0,0,0,0
"1-Propanol, 2-chloro-, phosphate (3:1)",522.85,1,CC(Cl)CO.CC(Cl)CO.CC(Cl)CO.O=P(O)(O)O,le15,0,0,0,0
"2-Naphthalenol, 1-(2-(2-chloro-4-nitrophenyl)diazenyl)-",564.95,1,O=[N+]([O-])c1ccc(N=Nc2c(O)ccc3ccccc23)c(Cl)c1,le15,0,0,0,0
"Dibenz(b,f)(1,4)oxazepine, 2-chloro-11-(4-methyl-1-piperazinyl)-",504.25,1,CN1CCN(C2=Nc3ccccc3Oc3ccc(Cl)cc32)CC1,le15,0,0,0,0
1-bromo-4-(4-bromophenoxy)benzene,413.45,1,Brc1ccc(Oc2ccc(Br)cc2)cc1,le15,0,0,0,0
"1H,12H-Furo(3',2':4,5)furo(2,3-h)pyrano(3,4-c)(1)benzopyran-1,12-dione",547.35,1,O=c1occc2c1c(=O)oc1c2ccc2oc3occc3c21,le15,0,0,0,0
"10H-Phenothiazine-10-propanamine, 2-methoxy-N,N,beta-trimethyl-, (-)-",509.95,1,COc1ccc2c(c1)N(CC(C)CN(C)C)c1ccccc1S2,le15,0,0,0,0
"Carbamothioic acid, diphenyl-, S-(2-(diethylamino)ethyl) ester",494.15,1,CCN(CC)CCSC(=O)N(c1ccccc1)c1ccccc1,le15,0,0,0,1
"4,7,10,13,16,19-Docosahexaenoic acid",616.55,1,CCC=CCC=CCC=CCC=CCC=CCC=CCCC(=O)O,le15,0,0,0,1
"1,3,5-tribromo-2-methylbenzene",400.75,1,Cc1c(Br)cc(Br)cc1Br,le15,0,0,0,0
"1H-Isoindole-5-sulfonamide, 6-chloro-2-cyclohexyl-2,3-dihydro-3-oxo-",576.05,1,NS(=O)(=O)c1cc2c(cc1Cl)CN(C1CCCCC1)C2=O,le15,0,0,0,0
"9,10-Anthracenedione, 1-hydroxy-4-((4-methylphenyl)amino)-",541.85,1,Cc1ccc(Nc2ccc(O)c3c2C(=O)c2ccccc2C3=O)cc1,le15,0,0,0,0
"Morpholine, 4-(triphenylmethyl)-",399.65,1,c1ccc(C(c2ccccc2)(c2ccccc2)N2CCOCC2)cc1,le15,0,0,0,0
"Benzenepropanamine, N-(1-methyl-2-phenylethyl)-gamma-phenyl-",492.55,1,CC(Cc1ccccc1)NCCC(c1ccccc1)c1ccccc1,le15,0,0,0,0
"2,4,6-tribromoaniline",406.05,1,Nc1c(Br)cc(Br)cc1Br,le15,0,0,0,0
"1,3-diiodobenzene",418.35,1,Ic1cccc(I)c1,le15,0,0,0,0
"Piperidine, 1-(2-((4-chlorophenyl)phenylmethoxy)ethyl)- (9CI)",483.35,1,Clc1ccc(C(OCCN2CCCCC2)c2ccccc2)cc1,le15,0,0,0,0
"1,4-diiodobenzene",410.85,1,Ic1ccc(I)cc1,le15,0,0,0,0
"9,10-Anthracenedione, 1,8-dihydroxy-4,5-dinitro-",554.05,1,O=C1c2c(O)ccc([N+](=O)[O-])c2C(=O)c2c([N+](=O)[O-])ccc(O)c21,le15,0,0,0,0
"Benzoic acid, 3,4-dichloro-, 3-(2-methylpiperidino)propyl ester",486.15,1,CC1CCCCN1CCCOC(=O)c1ccc(Cl)c(Cl)c1,le15,0,0,0,1
"1H,12H-Furo(3',2':4,5)furo(2,3-h)pyrano(3,4-c)(1)benzopyran-1,12-dione",542.75,1,O=c1occc2c1c(=O)oc1c2ccc2oc3occc3c21,le15,0,0,0,0
"1,2,4-Benzenetricarboxylic acid, triallyl ester (7CI,8CI)",464.45,1,C=CCOC(=O)c1ccc(C(=O)OCC=C)c(C(=O)OCC=C)c1,le15,0,0,0,1
2-[2-[2-[2-(2-methylprop-2-enoyloxy)ethoxy]ethoxy]ethoxy]ethyl,449.55,1,[CH2]COCCOCCOCCOC(=O)C(=C)C,le15,0,0,0,0
"1,2-Benzenedicarboxylic acid, dicyclohexyl ester",479.75,1,O=C(OC1CCCCC1)c1ccccc1C(=O)OC1CCCCC1,le15,0,0,0,1
"Pregn-4-ene-3,20-dione, 17-hydroxy-",533.05,1,CC(=O)[C@@]1(O)CC[C@H]2[C@@H]3CCC4=CC(=O)CC[C@]4(C)[C@H]3CC[C@@]21C,le15,0,0,0,0
"Aniline, 4,4'-benzylidenebis(N,N-dimethyl- (8CI)",487.75,1,CN(C)c1ccc(C(c2ccccc2)c2ccc(N(C)C)cc2)cc1,le15,0,0,0,0
octadecylbenzene,459.25,1,CCCCCCCCCCCCCCCCCCc1ccccc1,le15,0,0,0,0
"Benzoic acid, 5-(aminosulfonyl)-4-chloro-2-((2-furanylmethyl)amino)-",579.05,1,NS(=O)(=O)c1cc(C(=O)O)c(NCc2ccco2)cc1Cl,le15,0,0,0,1
"Phenol, 2,4,6-tribromo-",382.85,1,Oc1c(Br)cc(Br)cc1Br,le15,0,0,0,0
"Phosphoric acid, 2-chloro-1-(2,4-dichlorophenyl)ethenyl dimethyl ester",535.95,1,COP(=O)(OC)OC(=CCl)c1ccc(Cl)cc1Cl,le15,0,0,0,1
"Phosphoric acid, 2-chloro-1-(2,5-dichlorophenyl)ethenyl dimethyl ester",534.45,1,COP(=O)(OC)OC(=CCl)c1cc(Cl)ccc1Cl,le15,0,0,0,1
tetrabromomethane,338.56300000000005,1,BrC(Br)(Br)Br,le15,0,0,0,0
"1,4-Benzenedicarboxylic acid, 2,3,5,6-tetrachloro-, dimethyl ester",447.85,1,COC(=O)c1c(Cl)c(Cl)c(C(=O)OC)c(Cl)c1Cl,le15,0,0,0,1
"Dibenzo(b,def)chrysene-7,14-dione",493.05,1,O=c1c2ccccc2c2ccc3c(=O)c4ccccc4c4ccc1c2c34,le15,0,0,0,0
"1,2,2-triphenylethenylbenzene",479.35,1,c1ccc(C(=C(c2ccccc2)c2ccccc2)c2ccccc2)cc1,le15,0,0,0,0
Di(benzothiazol-2-yl) disulphide,548.95,1,c1ccc2sc(SSc3nc4ccccc4s3)nc2c1,le15,0,0,0,0
"1,4-Benzenediamine, N,N'-bis(1-ethyl-3-methylpentyl)-",523.25,1,CCC(C)CC(CC)Nc1ccc(NC(CC)CC(C)CC)cc1,le15,0,0,0,0
"4-((2-Chloro-4-nitrophenyl)azo)-N,N-diethylbenzenamine",526.75,1,CCN(CC)c1ccc(N=Nc2ccc([N+](=O)[O-])cc2Cl)cc1,le15,0,0,0,0
"Methanesulfenamide, 1,1-dichloro-N-((dimethylamino)sulfonyl)-1-fluoro-",430.65,1,CN(C)S(=O)(=O)NSC(F)(Cl)Cl,le15,0,0,0,0
"Acetic acid, (2,4-dichlorophenoxy)-, 2-ethylhexyl ester",410.15,1,CCCCC(CC)COC(=O)COc1ccc(Cl)cc1Cl,le15,0,0,0,1
"octyl 2-(2,4-dichlorophenoxy)acetate",412.75,1,CCCCCCCCOC(=O)COc1ccc(Cl)cc1Cl,le15,0,0,0,0
"Phosphonothioic acid, ethyl-, O-ethyl O-(2,4,5-trichlorophenyl) ester",451.95,1,CCOP(=S)(CC)Oc1cc(Cl)c(Cl)cc1Cl,le15,0,0,0,1
"1,2,3,4,5-pentafluoro-6-(2,3,4,5,6-pentafluorophenyl)benzene",341.65,1,Fc1c(F)c(F)c(-c2c(F)c(F)c(F)c(F)c2F)c(F)c1F,le15,0,0,0,0
"Pyridine, 2,3,4,5-tetrachloro-6-(trichloromethyl)-",451.55,1,Clc1nc(C(Cl)(Cl)Cl)c(Cl)c(Cl)c1Cl,le15,0,0,0,0
"Biphenyl, 2,2',4,4'-tetranitro- (8CI)",516.55,1,O=[N+]([O-])c1ccc(-c2ccc([N+](=O)[O-])cc2[N+](=O)[O-])c([N+](=O)[O-])c1,le15,0,0,0,0
"Benzimidazole, 7-nitro-4,5,6-trichloro-2-(trifluoromethyl)-",493.45,1,O=[N+]([O-])c1c(Cl)c(Cl)c(Cl)c2[nH]c(C(F)(F)F)nc12,le15,0,0,0,0
"Benzimidazole, 4,5,7-trichloro-6-nitro-2-(trifluoromethyl)-",492.05,1,O=[N+]([O-])c1c(Cl)c(Cl)c2[nH]c(C(F)(F)F)nc2c1Cl,le15,0,0,0,0
"Phosphoric acid, diethyl 3,5,6-trichloro-2-pyridinyl ester (9CI)",443.35,1,CCOP(=O)(OCC)Oc1nc(Cl)c(Cl)cc1Cl,le15,0,0,0,1
"Acetic acid, 2,4-dichlorophenoxy-, 3-butoxypropyl ester",425.95,1,CCCCOCCCOC(=O)COc1ccc(Cl)cc1Cl,le15,0,0,0,1
"p-Toluidine, N-butyl-N-ethyl-alpha,alpha,alpha-trifluoro-2,6-dinitro-",450.15,1,CCCCN(CC)c1c([N+](=O)[O-])cc(C(F)(F)F)cc1[N+](=O)[O-],le15,0,0,0,0
"p-Toluidine, alpha,alpha,alpha-trifluoro-2,6-dinitro-N,N-dipropyl-",450.15,1,CCCN(CCC)c1c([N+](=O)[O-])cc(C(F)(F)F)cc1[N+](=O)[O-],le15,0,0,0,0
"Butyric acid, 2-ethyl-2-phenyl-, 2-(2-(diethylamino)ethoxy)ethyl ester",481.65,1,CCN(CC)CCOCCOC(=O)C(CC)(CC)c1ccccc1,le15,0,0,0,1
"Phenol, 4,4'-(2,2,2-trifluoro-1-(trifluoromethyl)ethylidene)bis-",435.05,1,Oc1ccc(C(c2ccc(O)cc2)(C(F)(F)F)C(F)(F)F)cc1,le15,0,0,0,0
"Phosphorothioic acid, O-(p-(methylsulfinyl)phenyl) O,O-dipropyl ester",486.85,1,CCCOP(=S)(OCCC)Oc1ccc(S(C)=O)cc1,le15,0,0,0,1
"Propanamide, N-phenyl-N-(1-(2-phenylethyl)-4-piperidinyl)- (9CI)",458.95,1,CCC(=O)N(c1ccccc1)C1CCN(CCc2ccccc2)CC1,le15,0,0,0,0
octadecylcyclohexane,468.35,1,CCCCCCCCCCCCCCCCCCC1CCCCC1,le15,0,0,0,0
"1,1,1,2,2,3,3,4,5,5,5-undecafluoro-4-(trifluoromethyl)pentane",275.25,1,FC(F)(F)C(F)(F)C(F)(F)C(F)(C(F)(F)F)C(F)(F)F,le15,0,0,0,0
"Hexane, tetradecafluoro-",274.35,1,FC(F)(F)C(F)(F)C(F)(F)C(F)(F)C(F)(F)C(F)(F)F,le15,0,0,0,0
"Maleic anhydride, dihydroxy-, dibenzoate",481.35,1,O=C(O)c1ccccc1.O=C(O)c1ccccc1.O=C1OC(=O)C(O)=C1O,le15,0,0,0,0
"2-Naphthalenol, 1-(2-(2,4-dinitrophenyl)diazenyl)-",588.55,1,O=[N+]([O-])c1ccc(N=Nc2c(O)ccc3ccccc23)c([N+](=O)[O-])c1,le15,0,0,0,0
"Benzoic acid, 3,4,5-trihydroxy-, dodecyl ester",453.45,1,CCCCCCCCCCCCOC(=O)c1cc(O)c(O)c(O)c1,le15,0,0,0,1
"Oxiraneoctanoic acid, 3-octyl-, 2-propenyl ester (9CI)",433.65,1,C=CCOC(=O)CCCCCCCC1OC1CCCCCCCC,le15,0,0,0,1
tetracosane,507.65,1,CCCCCCCCCCCCCCCCCCCCCCCC,le15,0,0,0,0
"Isoquinoline, 1-((3,4-dimethoxyphenyl)methyl)-6,7-dimethoxy-",445.35,1,COc1ccc(Cc2nccc3cc(OC)c(OC)cc23)cc1OC,le15,0,0,0,0
"Methanesulfonamide, N,N-bis(2-(methylsulfonyloxy)ethyl)-",580.65,1,CS(=O)(=O)OCCN(CCOS(C)(=O)=O)S(C)(=O)=O,le15,0,0,0,0
"Androsta-3,5-dien-17-one, 3-(1-pyrrolidinyl)-",458.55,1,C[C@]12CC[C@H]3[C@@H](CC=C4C=C(N5CCCC5)CC[C@@]43C)[C@@H]1CCC2=O,le15,0,0,0,0
"2H-1-Benzopyran-2-one, 6-(beta-D-glucopyranosyloxy)-7-hydroxy-",535.95,1,O=c1ccc2cc(O[C@@H]3O[C@H](CO)[C@@H](O)[C@H](O)[C@H]3O)c(O)cc2o1,le15,0,0,0,0
"Quino(2,3-b)acridine-7,14-dione, 5,12-dihydro-2,9-dimethyl-",494.55,1,Cc1ccc2[nH]c3cc4c(=O)c5cc(C)ccc5[nH]c4cc3c(=O)c2c1,le15,0,0,0,0
"Oxirane, 2,2'-((1-methylethylidene)bis(4,1-phenyleneoxymethylene))bis-",563.15,1,CC(C)(c1ccc(OCC2CO2)cc1)c1ccc(OCC2CO2)cc1,le15,0,0,0,0
"Ethanol, 2-(2-(4-(diphenylmethyl)-1-piperazinyl)ethoxy)-",512.65,1,OCCOCCN1CCN(C(c2ccccc2)c2ccccc2)CC1,le15,0,0,0,0
"p-Cresol, 2,2'-methylenebis(6-tert-butyl- (8CI)",454.35,1,Cc1cc(Cc2cc(C)cc(C(C)(C)C)c2O)c(O)c(C(C)(C)C)c1,le15,0,0,0,0
"Octadecanoic acid, butyl ester",466.65,1,CCCCCCCCCCCCCCCCCC(=O)OCCCC,le15,0,0,0,1
2-methylpropyl octadecanoate,460.85,1,CCCCCCCCCCCCCCCCCC(=O)OCC(C)C,le15,0,0,0,0
"8-Methoxy-3,4-methylenedioxy-10-nitrophenanthrene-1-carboxylic acid",599.15,1,COc1cccc2c1cc([N+](=O)[O-])c1c(C(=O)O)cc3c(c12)OCO3,le15,0,0,0,1
"Theophylline, 7-(2-((alpha-methylphenethyl)amino)ethyl)-",567.95,1,CC(Cc1ccccc1)NCCn1cnc2c1c(=O)n(C)c(=O)n2C,le15,0,0,0,0
"Benzoic acid, 2-(acetyloxy)-, anhydride (9CI)",499.55,1,CC(=O)Oc1ccccc1C(=O)OC(=O)c1ccccc1OC(C)=O,le15,0,0,0,1
"alpha-D-Glucopyranoside, beta-D-fructofuranosyl",648.55,1,OC[C@H]1O[C@H](O[C@]2(CO)O[C@H](CO)[C@@H](O)[C@@H]2O)[C@H](O)[C@@H](O)[C@@H]1O,le15,0,0,0,0
"D-Glucose, 4-O-beta-D-galactopyranosyl-",630.95,1,O=C[C@H](O)[C@@H](O)[C@H](O[C@@H]1O[C@H](CO)[C@H](O)[C@H](O)[C@H]1O)[C@H](O)CO,le15,0,0,0,0
"Dibenzo(b,f)(1,4)thiazepine, 2-chloro-11-(4-methyl-1-piperazinyl)-",519.55,1,CN1CCN(C2=Nc3ccccc3Sc3ccc(Cl)cc32)CC1,le15,0,0,0,0
"Benzimidazole, 4,7-dibromo-2-(trifluoromethyl)-",452.95,1,FC(F)(F)c1nc2c(Br)ccc(Br)c2[nH]1,le15,0,0,0,0
"Benzimidazole, 4,6-dibromo-2-(trifluoromethyl)-",452.75,1,FC(F)(F)c1nc2cc(Br)cc(Br)c2[nH]1,le15,0,0,0,0
1-bromo-4-(4-bromophenyl)sulfanylbenzene,475.65,1,Brc1ccc(Sc2ccc(Br)cc2)cc1,le15,0,0,0,0
"Phosphoric acid, bis(2-chloroethyl) 4-nitrophenyl ester (9CI)",482.95,1,O=[N+]([O-])c1ccc(OP(=O)(OCCCl)OCCCl)cc1,le15,0,0,0,1
"Benzamide, 4-amino-5-bromo-N-(2-(diethylamino)ethyl)-2-methoxy- (9CI)",490.45,1,CCN(CC)CCNC(=O)c1cc(Br)c(N)cc1OC,le15,0,0,0,0
"D-Glucitol, 4-O-beta-D-galactopyranosyl-",703.85,1,OC[C@H](O)[C@@H](O)[C@H](O[C@@H]1O[C@H](CO)[C@H](O)[C@H](O)[C@H]1O)[C@H](O)CO,le15,0,0,0,0
"Androst-4-en-3-one, 17-(1-oxopropoxy)-, (17beta)-",469.45,1,CCC(=O)O[C@H]1CC[C@H]2[C@@H]3CCC4=CC(=O)CC[C@]4(C)[C@H]3CC[C@]12C,le15,0,0,0,0
"Pregn-4-ene-3,20-dione, 17-hydroxy-6-methyl-, (6alpha)- (9CI)",536.15,1,CC(=O)[C@@]1(O)CC[C@H]2[C@@H]3C[C@H](C)C4=CC(=O)CC[C@]4(C)[C@H]3CC[C@@]21C,le15,0,0,0,0
"Benzene, nonadecyl-",464.85,1,CCCCCCCCCCCCCCCCCCCc1ccccc1,le15,0,0,0,0
"Cyclotetrasiloxane, 2,4,6,8-tetraethenyl-2,4,6,8-tetramethyl-",367.45,1,C=C[Si]1(C)O[Si](C)(C=C)O[Si](C)(C=C)O[Si](C)(C=C)O1,le15,1,1,0,0
"1,3,5-tribromo-2-methoxybenzene",394.65,1,COc1c(Br)cc(Br)cc1Br,le15,0,0,0,0
"Aniline, 4-(methylsulfonyl)-2,6-dinitro-N,N-dipropyl- (7CI,8CI)",533.65,1,CCCN(CCC)c1c([N+](=O)[O-])cc(S(C)(=O)=O)cc1[N+](=O)[O-],le15,0,0,0,0
"Ethane, 1,1,2,2-tetrabromo-",370.15,1,BrC(Br)C(Br)Br,le15,0,0,0,0
"Butane, 1,1,1,2,2,3,3,4,4-nonafluoro-4-iodo-",291.85,1,FC(F)(F)C(F)(F)C(F)(F)C(F)(F)I,le15,0,0,0,0
"Heptanoic acid, 2,2,3,3,4,4,5,5,6,6,7,7-dodecafluoro-",340.75,1,O=C(O)C(F)(F)C(F)(F)C(F)(F)C(F)(F)C(F)(F)C(F)F,le15,0,0,0,1
"3,3,4,4,5,5,6,6,7,7,8,8,8-tridecafluorooct-1-ene",293.15,1,C=CC(F)(F)C(F)(F)C(F)(F)C(F)(F)C(F)(F)C(F)(F)F,le15,0,0,0,0
"2-Benzothiazolesulfenamide, N,N-dicyclohexyl-",521.15,1,c1ccc2sc(SN(C3CCCCC3)C3CCCCC3)nc2c1,le15,0,0,0,0
3-Chloro-4-methyl-2-oxo-2H-1-benzopyran-7-yl diethyl phosphate,620.15,1,CCOP(=O)(OCC)Oc1ccc2c(C)c(Cl)c(=O)oc2c1,le15,0,0,0,0
"1,3-Benzenediol, 2,4,6-tribromo- (9CI)",381.15,1,Oc1c(Br)cc(Br)c(O)c1Br,le15,0,0,0,0
"Butanoic acid, 2,6-dibromo-4-cyanophenyl ester",452.45,1,CCCC(=O)Oc1c(Br)cc(C#N)cc1Br,le15,0,0,0,1
Inosine 5'-monophosphate,741.85,1,O=P(O)(O)OC[C@H]1O[C@@H](n2cnc3c(O)ncnc32)[C@H](O)[C@@H]1O,le15,0,0,0,0
"Pyrrole, 1-(o-(2-(diethylamino)ethoxy)phenyl)-2-methyl-5-phenyl-",528.05,1,CCN(CC)CCOc1ccccc1-n1c(C)ccc1-c1ccccc1,le15,0,0,0,0
"1-Naphthalenesulfonic acid, 3,6-bis(1,1-dimethylethyl)-, ethyl ester",507.45,1,CCOS(=O)(=O)c1cc(C(C)(C)C)cc2cc(C(C)(C)C)ccc12,le15,0,0,0,1
"1H-Benz(de)isoquinoline-1,3(2H)-dione, 2-((diethoxyphosphinyl)oxy)-",521.65,1,CCOP(=O)(OCC)ON1C(=O)c2cccc3cccc(c23)C1=O,le15,0,0,0,0
"1,1,2,2,3,3,4,4,5,5,6-undecafluoro-6-(trifluoromethyl)cyclohexane",277.35,1,FC(F)(F)C1(F)C(F)(F)C(F)(F)C(F)(F)C(F)(F)C1(F)F,le15,0,0,0,0
"1,1,2,3,3,4,4,5,5,6,6,7,7,7-tetradecafluorohept-1-ene",288.65,1,FC(F)=C(F)C(F)(F)C(F)(F)C(F)(F)C(F)(F)C(F)(F)F,le15,0,0,0,0
nonadecylcyclohexane,475.15,1,CCCCCCCCCCCCCCCCCCCC1CCCCC1,le15,0,0,0,0
"Benzamide, 3,5-dichloro-N-(3,4-dichlorophenyl)-2-hydroxy-",473.75,1,O=C(Nc1ccc(Cl)c(Cl)c1)c1cc(Cl)cc(Cl)c1O,le15,0,0,0,0