compound,flashpoint,pure substance,smiles,source,is_silicon,is_metallic,is_tin,is_acid
"Estra-1,3,5(10)-triene-3,16,17-triol, (16alpha,17beta)-",493.95,1,C[C@]12CC[C@@H]3c4ccc(O)cc4CC[C@H]3[C@@H]1C[C@@H](O)[C@@H]2O,le15,0,0,0,0
"Phosphonodithioic acid, ethyl-, S-(p-tert-butylphenyl) O-methyl ester",444.35,1,CCP(=S)(OC)Sc1ccc(C(C)(C)C)cc1,le15,0,0,0,1
"2-Cyclopenten-1-one, 2,3,4,4,5,5-hexachloro-",375.35,1,O=C1C(Cl)=C(Cl)C(Cl)(Cl)C1(Cl)Cl,le15,0,0,0,0
1-chlorooctadecane,457.15,1,CCCCCCCCCCCCCCCCCCCl,le15,0,0,0,0
"Phosphoramidodithioic acid, butyl-, O-ethyl S-phenyl ester",451.75,1,CCCCNP(=S)(OCC)Sc1ccccc1,le15,0,0,0,1
"Cyclopentanecarboxylic acid, 1-phenyl-, 2-(diethylamino)ethyl ester",397.95,1,CCN(CC)CCOC(=O)C1(c2ccccc2)CCCC1,le15,0,0,0,1
"Benzimidazole, 4,5,6-trichloro-2-(trifluoromethyl)-",451.45,1,FC(F)(F)c1nc2cc(Cl)c(Cl)c(Cl)c2[nH]1,le15,0,0,0,0
"Benzonitrile, 4-hydroxy-3-iodo-5-nitro-",396.35,1,N#Cc1cc(I)c(O)c([N+](=O)[O-])c1,le15,0,0,0,0
"Pyrophosphoric acid, tetraethyl ester",398.75,1,CCOP(=O)(OCC)OP(=O)(OCC)OCC,le15,0,0,0,1
"2,4-Pyrimidinediamine, 5-((3,4,5-trimethoxyphenyl)methyl)-",545.05,1,COc1cc(Cc2cnc(N)nc2N)cc(OC)c1OC,le15,0,0,0,0
"Acetamide, N-(4-((4-aminophenyl)sulfonyl)phenyl)- (9CI)",583.45,1,CC(=O)Nc1ccc(S(=O)(=O)c2ccc(N)cc2)cc1,le15,0,0,0,0
"Phosphorothioic acid, O,O-diethyl S-(2-(ethylsulfonyl)ethyl) ester",478.75,1,CCOP(=O)(OCC)SCCS(=O)(=O)CC,le15,0,0,0,1
"Phosphorodithioic acid, O,O-diethyl S-((ethylsulfinyl)ethyl) ester",474.15,1,CCOP(=S)(OCC)SCCS(=O)CC,le15,0,0,0,1
"1,6,10,14-Hexadecatetraen-3-ol, 3,7,11,15-tetramethyl-, (6E,10E)-",433.15,1,C=CC(C)(O)CC/C=C(\C)CC/C=C(\C)CCC=C(C)C,le15,0,0,0,0
"Urea, 3-(p-(p-chlorophenoxy)phenyl)-1,1-dimethyl-",504.75,1,CN(C)C(=O)Nc1ccc(Oc2ccc(Cl)cc2)cc1,le15,0,0,0,0
"Phosphorothioic acid, O,O-diethyl O-(4-nitrophenyl) ester",446.65,1,CCOP(=S)(OCC)Oc1ccc([N+](=O)[O-])cc1,le15,0,0,0,1
"Phosphorothioic acid, O,S-diethyl O-(4-nitrophenyl) ester (9CI)",466.25,1,CCOP(=O)(Oc1ccc([N+](=O)[O-])cc1)SCC,le15,0,0,0,1
"Benzoic acid, 2-((1-naphthalenylamino)carbonyl)- (9CI)",499.55,1,O=C(O)c1ccccc1C(=O)Nc1cccc2ccccc12,le15,0,0,0,1
1-bromopentadecane,406.85,1,CCCCCCCCCCCCCCCBr,le15,0,0,0,0
"2-Pyrazolin-5-one, 4-dimethylaminomethylene-1,3-diphenyl-",467.65,1,CN(C)C=C1C(=O)N(c2ccccc2)N=C1c1ccccc1,le15,0,0,0,0
"11H-Dibenz(b,e)azepine, 6-(4-methyl-1-piperazinyl)-",491.25,1,CN1CCN(C2=Nc3ccccc3Cc3ccccc32)CC1,le15,0,0,0,0
"Phosphoric acid, dimethyl 1,2,2,2-tetrachloroethyl ester",384.35,1,COP(=O)(OC)OC(Cl)C(Cl)(Cl)Cl,le15,0,0,0,1
"1,1'-Biphenyl, 2,2',4,4'-tetrachloro-",433.45,1,Clc1ccc(-c2ccc(Cl)cc2Cl)c(Cl)c1,le15,0,0,0,0
"Glycine, N,N'-1,2-ethanediylbis(N-(carboxymethyl)-",598.35,1,O=C(O)CN(CCN(CC(=O)O)CC(=O)O)CC(=O)O,le15,0,0,0,0
"2-Naphthalenamine, 1-(2-(4-nitrophenyl)diazenyl)-",558.95,1,Nc1ccc2ccccc2c1N=Nc1ccc([N+](=O)[O-])cc1,le15,0,0,0,0
"Benzenamine, 4,4'-(1,3-phenylenebis(oxy))bis-",544.05,1,Nc1ccc(Oc2cccc(Oc3ccc(N)cc3)c2)cc1,le15,0,0,0,0
"Phosphorodithioic acid, O,O-diethyl S-((ethylsulfonyl)methyl) ester",467.25,1,CCOP(=S)(OCC)SCS(=O)(=O)CC,le15,0,0,0,1
"1H-Indene-2-ethanamine, N,N-dimethyl-3-(1-(2-pyridinyl)ethyl)- (9CI)",478.75,1,CC(C1=C(CCN(C)C)Cc2ccccc21)c1ccccn1,le15,0,0,0,0
"2-Propanol, 1,1',1'',1'''-(1,2-ethanediyldinitrilo)tetrakis-",373.15,1,CC(O)CN(CCN(CC(C)O)CC(C)O)CC(C)O,le15,0,0,0,0
"Cyclotetrasilazane, 2,2,4,4,6,6,8,8-octamethyl-",339.15,1,C[Si]1(C)N[Si](C)(C)N[Si](C)(C)N[Si](C)(C)N1,le15,1,1,0,0
"Propionic acid, 2-methyl-2-phenoxy-, 2-morpholinoethyl ester (8CI)",473.75,1,CC(C)(Oc1ccccc1)C(=O)OCCN1CCOCC1,le15,0,0,0,1
"Piperidine, 1-methyl-4-(9H-thioxanthen-9-ylidene)- (9CI)",492.85,1,CN1CCC(=C2c3ccccc3Sc3ccccc32)CC1,le15,0,0,0,0
"1,2,3,4,5-pentafluoro-6-iodobenzene",334.45,1,Fc1c(F)c(F)c(I)c(F)c1F,le15,0,0,0,0
"1-Iodo-2,4-dinitrobenzene",439.75,1,O=[N+]([O-])c1ccc(I)c([N+](=O)[O-])c1,le15,0,0,0,0
"Ethanone, 1-(4-(1,1-dimethylethyl)-2,6-dimethyl-3,5-dinitrophenyl)-",426.35,1,CC(=O)c1c(C)c([N+](=O)[O-])c(C(C)(C)C)c([N+](=O)[O-])c1C,le15,0,0,0,0
"3,5-Pyrazolidinedione, 1,2-diphenyl-4-propyl-",444.45,1,CCCC1C(=O)N(c2ccccc2)N(c2ccccc2)C1=O,le15,0,0,0,0
"Benzo(b)thiophene-6-carboximidamide, 2-(4-(aminoiminomethyl)phenyl)-",541.65,1,N=C(N)c1ccc2cc(-c3ccc(C=NN)cc3)sc2c1,le15,0,0,0,0
"Linoleic acid, methyl ester (8CI)",370.15,1,CCCCC/C=C\C/C=C\CCCCCCCC(=O)OC,le15,0,0,0,1
"1,2,2-tribromobutane",357.05,1,CCC(Br)(Br)CBr,le15,0,0,0,0
"2,2,3-tribromobutane",350.35,1,CC(Br)C(C)(Br)Br,le15,0,0,0,0
"1,2-dichloro-3,3,4,4,5,5,6,6-octafluorocyclohexene",306.75,1,FC1(F)C(Cl)=C(Cl)C(F)(F)C(F)(F)C1(F)F,le15,0,0,0,0
"Benzeneacetonitrile, alpha-(beta-D-glucopyranosyloxy)- (9CI)",545.65,1,N#CC(O[C@@H]1O[C@H](CO)[C@@H](O)[C@H](O)[C@H]1O)c1ccccc1,le15,0,0,0,0
"2H-1,4-Benzodiazepin-2-one, 1,3-dihydro-1-methyl-7-nitro-5-phenyl-",553.85,1,CN1C(=O)CN=C(c2ccccc2)c2cc([N+](=O)[O-])ccc21,le15,0,0,0,0
"Dibenz(a,j)acridine, 7-oxide",572.85,1,[O-][n+]1c2ccc3ccccc3c2cc2c3ccccc3ccc21,le15,0,0,0,0
"4H-Dibenzo(de,g)quinoline, 5,6,6a,7-tetrahydro-1,2-dimethoxy-6-methyl-",425.05,1,COc1cc2c3c(c1OC)-c1ccccc1CC3N(C)CC2,le15,0,0,0,0
1-isocyanatooctadecane,418.05,1,CCCCCCCCCCCCCCCCCCN=C=O,le15,0,0,0,0
"2H-1,2,4-Benzothiadiazine-7-sulfonamide, 6-chloro-, 1,1-dioxide",595.15,1,NS(=O)(=O)c1cc2c(cc1Cl)N=CNS2(=O)=O,le15,0,0,0,0
"Benzenamine, 2,4-dibromo-6-nitro-",425.65,1,Nc1c(Br)cc(Br)cc1[N+](=O)[O-],le15,0,0,0,0
"1,1,1,2,2,3,3-heptafluoro-3-iodopropane",276.55,1,FC(F)(F)C(F)(F)C(F)(F)I,le15,0,0,0,0
"1,1,1,2,3,3,3-heptafluoro-2-iodopropane",277.85,1,FC(F)(F)C(F)(I)C(F)(F)F,le15,0,0,0,0
"Pentanedioic acid, hexafluoro-, diethyl ester",360.05,1,CCOC(=O)C(F)(F)C(F)(F)C(F)(F)C(=O)OCC,le15,0,0,0,1
"1,3,5,7-Tetrazocine, octahydro-1,3,5,7-tetranitro-",774.95,1,O=[N+]([O-])N1CN([N+](=O)[O-])CN([N+](=O)[O-])CN([N+](=O)[O-])C1,le15,0,0,0,0
1-iodododecane,386.65,1,CCCCCCCCCCCCI,le15,0,0,0,0
"1H-Imidazole, 2,4,5-triphenyl-",545.75,1,c1ccc(-c2nc(-c3ccccc3)c(-c3ccccc3)[nH]2)cc1,le15,0,0,0,0
"5H-Dibenz(b,f)azepin-2-ol, 10,11-dihydro-5-(3-(dimethylamino)propyl)-",512.65,1,CN(C)CCCN1c2ccccc2CCc2cc(O)ccc21,le15,0,0,0,0
"10H-Phenothiazine, 10-((1-methyl-3-pyrrolidinyl)methyl)-",487.25,1,CN1CCC(CN2c3ccccc3Sc3ccccc32)C1,le15,0,0,0,0
"1H-Isoindole-1,3(2H)-dione, 2-((trichloromethyl)thio)-",428.85,1,O=C1c2ccccc2C(=O)N1SC(Cl)(Cl)Cl,le15,0,0,0,0
henicosane,386.15,1,CCCCCCCCCCCCCCCCCCCCC,le15,0,0,0,0
"Cyclotetrasiloxane, octamethyl-",336.35,1,C[Si]1(C)O[Si](C)(C)O[Si](C)(C)O[Si](C)(C)O1,le15,1,1,0,0
"Acetic acid, 2,2,2-tribromo-",370.15,1,O=C(O)C(Br)(Br)Br,le15,0,0,0,1
bis(trichloromethyl) carbonate,326.45,1,O=C(OC(Cl)(Cl)Cl)OC(Cl)(Cl)Cl,le15,0,0,0,0
"Phenol, 2,6-dibromo-4-nitro-",407.05,1,O=[N+]([O-])c1cc(Br)c(O)c(Br)c1,le15,0,0,0,0
"2-Anthracenecarboxylic acid, 9,10-dihydro-1-nitro-9,10-dioxo- (9CI)",525.45,1,O=C1c2ccccc2C(=O)c2c1ccc(C(=O)O)c2[N+](=O)[O-],le15,0,0,0,1
"Benzene, 1-(1,1-dimethylethyl)-3,5-dimethyl-2,4,6-trinitro-",447.35,1,Cc1c([N+](=O)[O-])c(C)c([N+](=O)[O-])c(C(C)(C)C)c1[N+](=O)[O-],le15,0,0,0,0
"1,3,5-Triazine-2,4,6(1H,3H,5H)-trione, 1,3,5-tris(oxiranylmethyl)-",530.05,1,O=c1n(CC2CO2)c(=O)n(CC2CO2)c(=O)n1CC1CO1,le15,0,0,0,0
"1,3,5-Triazine, 2,4,6-tris(oxiranylmethoxy)- (9CI)",453.05,1,C(Oc1nc(OCC2CO2)nc(OCC2CO2)n1)C1CO1,le15,0,0,0,0
"Benzenesulfonamide, N-(5-tert-butyl-1,3,4-thiadiazol-2-yl)-",498.75,1,CC(C)(C)c1nnc(NS(=O)(=O)c2ccccc2)s1,le15,0,0,0,0
"Phosphorothioic acid, O-(3-chloro-4-nitrophenyl) O,O-dimethyl ester",448.65,1,COP(=S)(OC)Oc1ccc([N+](=O)[O-])c(Cl)c1,le15,0,0,0,1
"Phosphorothioic acid, O-(2-chloro-4-nitrophenyl) O,O-dimethyl ester",442.15,1,COP(=S)(OC)Oc1ccc([N+](=O)[O-])cc1Cl,le15,0,0,0,1
"Phosphorothioic acid, O-(4-chloro-3-nitrophenyl) O,O-dimethyl ester",438.95,1,COP(=S)(OC)Oc1ccc(Cl)c([N+](=O)[O-])c1,le15,0,0,0,1
"Methane, nitrotribromo-",321.25,1,O=[N+]([O-])C(Br)(Br)Br,le15,0,0,0,0
"2H-1-Benzopyran-2-one, 3-(1-(2-furanyl)-3-oxobutyl)-4-hydroxy-",487.35,1,CC(=O)CC(c1ccco1)c1c(O)c2ccccc2oc1=O,le15,0,0,0,0
"Benzenamine, N,N-diethyl-4-((4-nitrophenyl)azo)-",510.95,1,CCN(CC)c1ccc(N=Nc2ccc([N+](=O)[O-])cc2)cc1,le15,0,0,0,0
"1H-Pyrazole, 4,5-dihydro-1,3,5-triphenyl-",501.45,1,c1ccc(C2=NN(c3ccccc3)C(c3ccccc3)C2)cc1,le15,0,0,0,0
"2,4-Xylenol, 6,6'-butylidenebis-",475.05,1,CCCC(c1cc(C)cc(C)c1O)c1cc(C)cc(C)c1O,le15,0,0,0,0
"1-Naphthaleneacetamide, alpha-(2-(dimethylamino)ethyl)-alpha-isopropyl",518.85,1,CN(C)CCC(C)(C)NC(=O)Cc1cccc2ccccc12,le15,0,0,0,0
"10H-Phenothiazine-10-propanamine, N,N,beta-trimethyl-",481.15,1,CC(CN(C)C)CN1c2ccccc2Sc2ccccc21,le15,0,0,0,0
"Oxiraneoctanoic acid, 3-octyl- (9CI)",414.25,1,CCCCCCCCC1OC1CCCCCCCC(=O)O,le15,0,0,0,1
methyl octadecanoate,383.15,1,CCCCCCCCCCCCCCCCCC(=O)OC,le15,0,0,0,0
"Phosphorotrithious acid, tributyl ester",456.95,1,CCCCSP(SCCCC)SCCCC,le15,0,0,0,1
"Hexadecanoic acid, 1-methylethyl ester",435.35,1,CCCCCCCCCCCCCCCC(=O)OC(C)C,le15,0,0,0,1
"2,5-Norbornadiene, 1,2,3,4,7,7-hexachloro- (8CI)",407.75,1,ClC1=C(Cl)C2(Cl)C=CC1(Cl)C2(Cl)Cl,le15,0,0,0,0
"Succinic acid, alpha-butyl-p-chlorobenzyl ester",507.65,1,CCCCC(OC(=O)CCC(=O)[O-])c1ccc(Cl)cc1,le15,0,0,0,1
"Phosphoric acid, 2,4-dichlorophenyl diethyl ester",481.65,1,CCOP(=O)(OCC)Oc1ccc(Cl)cc1Cl,le15,0,0,0,1
"Phosphonothioic acid, ethyl-, O-(2,4-dichlorophenyl) O-ethyl ester",434.55,1,CCOP(=S)(CC)Oc1ccc(Cl)cc1Cl,le15,0,0,0,1
"Caffeine, 8-(p-aminobenzyl)-",576.15,1,Cn1c(=O)c2c(nc(Cc3ccc(N)cc3)n2C)n(C)c1=O,le15,0,0,0,0
"Morphinan-6-one, 4,5alpha-epoxy-3-methoxy-17-methyl- (8CI)",506.05,1,COc1ccc2c3c1O[C@H]1C(=O)CC[C@H]4[C@@H](C2)N(C)CC[C@]314,le15,0,0,0,0
"3H-1,4-Benzodiazepine, 7-chloro-2-(methylamino)-5-phenyl-, 4-oxide",559.0,1,CNC1=Nc2ccc(Cl)cc2C(c2ccccc2)=[N+]([O-])C1,le15,0,0,0,0
"Benzamide, 4-amino-5-chloro-N-(2-(diethylamino)ethyl)-2-methoxy- (9CI)",480.15,1,CCN(CC)CCNC(=O)c1cc(Cl)c(N)cc1OC,le15,0,0,0,0
"Benzimidazole, 5,6-dichloro-4-nitro-2-(trifluoromethyl)-",477.35,1,O=[N+]([O-])c1c(Cl)c(Cl)cc2nc(C(F)(F)F)[nH]c12,le15,0,0,0,0
"Benzimidazole, 4,5-dichloro-6-nitro-2-(trifluoromethyl)-",477.35,1,O=[N+]([O-])c1cc2nc(C(F)(F)F)[nH]c2c(Cl)c1Cl,le15,0,0,0,0
"Decane, 1,10-dibromo-",426.55,1,BrCCCCCCCCCCBr,le15,0,0,0,0
"2-Anthracenecarboxylic acid, 9,10-dihydro-4,5,7-trihydroxy-9,10-dioxo-",657.85,1,O=C(O)c1cc(O)c2c(c1)C(=O)c1cc(O)cc(O)c1C2=O,le15,0,0,0,1
"2-Butenoic acid, 3-((dimethoxyphosphinyl)oxy)-, phenylmethyl ester",458.55,1,COP(=O)(OC)OC(C)=CC(=O)OCc1ccccc1,le15,0,0,0,1
"9,10-Anthracenedione, 1,4,5-trihydroxy-7-methoxy-2-methyl- (9CI)",502.75,1,COc1cc(O)c2c(c1)C(=O)c1c(O)c(C)cc(O)c1C2=O,le15,0,0,0,0
"Benzoic acid, 2-(acetyloxy)-, 2-carboxyphenyl ester",477.05,1,CC(=O)Oc1ccccc1C(=O)Oc1ccccc1C(=O)O,le15,0,0,0,1
"4H-1-Benzopyran-4-one, 5,7-dihydroxy-2-(4-hydroxyphenyl)-6-methoxy-",503.25,1,COc1c(O)cc2oc(-c3ccc(O)cc3)cc(=O)c2c1O,le15,0,0,0,0
"Anthraquinone, 3-methoxy-6-methyl-1,2,8-trihydroxy-",486.65,1,COc1cc2c(c(O)c1O)C(=O)c1c(O)cc(C)cc1C2=O,le15,0,0,0,0
"2-Naphthalenol, 1,1'-methylenebis- (9CI)",531.75,1,Oc1ccc2ccccc2c1Cc1c(O)ccc2ccccc12,le15,0,0,0,0
"Benzenesulfonamide, 4-amino-N-2-quinoxalinyl-",560.25,1,Nc1ccc(S(=O)(=O)Nc2cnc3ccccc3n2)cc1,le15,0,0,0,0
"2-Cyclohexen-1-one, 3-hexyl-5-(3,4-(methylenedioxy)phenyl)-",474.65,1,CCCCCCC1=CC(=O)CC(c2ccc3c(c2)OCO3)C1,le15,0,0,0,0
"Methane, sulfonylbis(trichloro-",398.85,1,O=S(=O)(C(Cl)(Cl)Cl)C(Cl)(Cl)Cl,le15,0,0,0,0
"5-Bromo-2-phenyl-1H-indene-1,3(2H)-dione",434.95,1,O=C1c2ccc(Br)cc2C(=O)C1c1ccccc1,le15,0,0,0,0
"1,3-Indandione, 4-bromo-2-phenyl-",434.95,1,O=C1c2cccc(Br)c2C(=O)C1c1ccccc1,le15,0,0,0,0
"Benzohydroxamic acid, N-fluoren-2-yl-",547.55,1,O=C(c1ccccc1)N(O)c1ccc2c(c1)Cc1ccccc1-2,le15,0,0,0,1
"Morphinan-6-one, 4,5alpha-epoxy-3,14-dihydroxy-17-methyl- (8CI)",540.606,1,CN1CC[C@]23c4c5ccc(O)c4O[C@H]2C(=O)CC[C@@]3(O)[C@H]1C5,le15,0,0,0,0
"Morphinan-6-ol, 4,5-epoxy-3-methoxy-17-methyl-, (5alpha,6alpha)-",506.35,1,COc1ccc2c3c1O[C@H]1[C@@H](O)CC[C@H]4[C@@H](C2)N(C)CC[C@]314,le15,0,0,0,0
"4H-1-Benzopyran-4-one, 2-(3,4-dihydroxyphenyl)-3,5,7-trihydroxy-",521.25,1,O=c1c(O)c(-c2ccc(O)c(O)c2)oc2cc(O)cc(O)c12,le15,0,0,0,0
"Xanthen-9-one, 8-hydroxy-1,3,5-trimethoxy-",466.75,1,COc1cc(OC)c2c(=O)c3c(O)ccc(OC)c3oc2c1,le15,0,0,0,0
"Naphtho(1,2,3,4-def)chrysene",555.15,1,c1ccc2c(c1)cc1c3ccccc3c3cccc4ccc2c1c43,le15,0,0,0,0
"1,2-Benzenediol, 4,4'-(2,3-dimethyl-1,4-butanediyl)bis-",520.95,1,CC(Cc1ccc(O)c(O)c1)C(C)Cc1ccc(O)c(O)c1,le15,0,0,0,0
"5,8,11,14,17-Eicosapentaenoic acid",609.15,1,CCC=CCC=CCC=CCC=CCC=CCCCC(=O)O,le15,0,0,0,1
"Androst-4-en-3-one, 17-hydroxy-17-methyl-, (17beta)-",458.45,1,C[C@]1(O)CC[C@H]2[C@@H]3CCC4=CC(=O)CC[C@]4(C)[C@H]3CC[C@@]21C,le15,0,0,0,0
Octadecanoyl chloride,438.15,1,CCCCCCCCCCCCCCCCCC(=O)Cl,le15,0,0,0,0
"Acetic acid, (2,3-dichloro-4-(2-methylene-1-oxobutyl)phenoxy)-",517.25,1,C=C(CC)C(=O)c1ccc(OCC(=O)O)c(Cl)c1Cl,le15,0,0,0,1
"Phenol, 2,4-dichloro-, benzenesulfonate",490.15,1,O=S(=O)(Oc1ccc(Cl)cc1Cl)c1ccccc1,le15,0,0,0,0
"Propane, 1,1,1,2,3,3,3-heptachloro-2-fluoro-",379.35,1,FC(Cl)(C(Cl)(Cl)Cl)C(Cl)(Cl)Cl,le15,0,0,0,0
"4H-1-Benzopyran-4-one, 7-methoxy-2,3-dimethyl-8-(4-morpholinylmethyl)-",494.95,1,COc1ccc2c(=O)c(C)c(C)oc2c1CN1CCOCC1,le15,0,0,0,0
"Butane, 2,2,3,3-tetrachloro-1,1,1,4,4,4-hexafluoro-",318.25,1,FC(F)(F)C(Cl)(Cl)C(Cl)(Cl)C(F)(F)F,le15,0,0,0,0
"Benzenemethanamine, N-(2-chloroethyl)-N-(1-methyl-2-phenoxyethyl)-",457.65,1,CC(COc1ccccc1)N(CCCl)Cc1ccccc1,le15,0,0,0,0
"Benzenesulfonamide, N,N-dibutyl-4-chloro-",467.15,1,CCCCN(CCCC)S(=O)(=O)c1ccc(Cl)cc1,le15,0,0,0,0
"1,4-Benzenedicarboxylic acid, 2,3,5,6-tetrachloro-",484.05,1,O=C(O)c1c(Cl)c(Cl)c(C(=O)O)c(Cl)c1Cl,le15,0,0,0,1
"1,4,5,8-Naphthalenetetracarboxylic acid",687.15,1,O=C(O)c1ccc(C(=O)O)c2c(C(=O)O)ccc(C(=O)O)c12,le15,0,0,0,1
"Benzenebutanoic acid, 4-(bis(2-chloroethyl)amino)-",505.25,1,O=C(O)CCCc1ccc(N(CCCl)CCCl)cc1,le15,0,0,0,1
"Dibenz(c,f)indeno(1,2,3-ij)(2,7)naphthyridine",537.65,1,c1ccc2c(c1)-c1nc3ccccc3c3c1c-2nc1ccccc13,le15,0,0,0,0
"Phthalic acid, butyl cyclohexyl ester (8CI)",457.55,1,CCCCOC(=O)c1ccccc1C(=O)OC1CCCCC1,le15,0,0,0,1
ethoxy(triphenyl)silane,436.65,1,CCO[Si](c1ccccc1)(c1ccccc1)c1ccccc1,le15,1,1,0,0
"Androstan-3-one, 17-hydroxy-2-methyl-, (2alpha,5alpha,17beta)- (9CI)",452.55,1,C[C@@H]1C[C@@]2(C)[C@@H](CC[C@H]3[C@@H]4CC[C@H](O)[C@@]4(C)CC[C@@H]32)CC1=O,le15,0,0,0,0
"1,4-Benzenediamine, N,N'-bis(1,4-dimethylpentyl)-",507.95,1,CC(C)CCC(C)Nc1ccc(NC(C)CCC(C)C)cc1,le15,0,0,0,0
"1H-Imidazole, 2,4,5-tribromo-",469.65,1,Brc1nc(Br)c(Br)[nH]1,le15,0,0,0,0
"1,3-Benzenedisulfonamide, 4,5-dichloro-",584.05,1,NS(=O)(=O)c1cc(Cl)c(Cl)c(S(N)(=O)=O)c1,le15,0,0,0,0
"Alanine, 3-(p-(bis(2-chloroethyl)amino)phenyl)-, DL-",513.05,1,NC(Cc1ccc(N(CCCl)CCCl)cc1)C(=O)O,le15,0,0,0,0
"Alanine, 3-(p-(bis(2-chloroethyl)amino)phenyl)-, L-",513.05,1,N[C@@H](Cc1ccc(N(CCCl)CCCl)cc1)C(=O)O,le15,0,0,0,0
"Phosphorothioic acid, O-isopropyl O-methyl O-(4-nitro-m-tolyl) ester",452.15,1,COP(=S)(Oc1cc(C)ccc1[N+](=O)[O-])OC(C)C,le15,0,0,0,1
1-bromohexadecane,412.95,1,CCCCCCCCCCCCCCCCBr,le15,0,0,0,0
"6-Nonenamide, 8-methyl-N-vanillyl-, (E)- (8CI)",536.25,1,COc1cc(CNC(=O)CCCC/C=C/C(C)C)ccc1O,le15,0,0,0,0
"8-Quinolinol, 5-chloro-7-iodo-",438.85,1,Oc1c(I)cc(Cl)c2cccnc12,le15,0,0,0,0
triphenylarsane,447.783,1,c1ccc([As](c2ccccc2)c2ccccc2)cc1,le15,0,1,0,0
"Glycine, N,N'-1,3-propanediylbis(N-(carboxymethyl)-",602.25,1,O=C(O)CN(CCCN(CC(=O)O)CC(=O)O)CC(=O)O,le15,0,0,0,0
"1,3,5-triphenylbenzene",511.15,1,c1ccc(-c2cc(-c3ccccc3)cc(-c3ccccc3)c2)cc1,le15,0,0,0,0
"2,9-Dimethylpicene",552.25,1,Cc1ccc2ccc3c(ccc4c5cccc(C)c5ccc43)c2c1,le15,0,0,0,0
"dipentyl benzene-1,2-dicarboxylate",461.95,1,CCCCCOC(=O)c1ccccc1C(=O)OCCCCC,le15,0,0,0,0
"Phosphoric acid, dimethyl 3,5,6-trichloro-2-pyridinyl ester",425.45,1,COP(=O)(OC)Oc1nc(Cl)c(Cl)cc1Cl,le15,0,0,0,1
"Phosphonic acid, bis(2-ethylhexyl) ester",465.95,1,CCCCC(CC)CO[PH](=O)OCC(CC)CCCC,le15,0,0,0,1
"5,8,11,14,17-Pentaoxaheneicosane",410.35,1,CCCCOCCOCCOCCOCCOCCCC,le15,0,0,0,0
"9,12,15-Octadecatrienoic acid, ethyl ester, (9Z,12Z,15Z)-",373.85,1,CC/C=C\C/C=C\C/C=C\CCCCCCCC(=O)OCC,le15,0,0,0,1
"Phosphoramidothioic acid, O-methyl O-(2,4,5-trichlorophenyl) ester",454.45,1,COP(N)(=S)Oc1cc(Cl)c(Cl)cc1Cl,le15,0,0,0,1
"Methanethioic acid, tetrathiobis-, O,O-diethyl ester (9CI)",458.95,1,CCOC(=S)SSSSC(=S)OCC,le15,0,0,0,1
"Benzene, 1,1'-(2,2-dichloroethylidene)bis(4-ethyl-",485.25,1,CCc1ccc(C(c2ccc(CC)cc2)C(Cl)Cl)cc1,le15,0,0,0,0
"Carbamothioic acid, methyl(3-methylphenyl)-, O-2-naphthalenyl ester",501.15,1,Cc1cccc(N(C)C(=S)Oc2ccc3ccccc3c2)c1,le15,0,0,0,1
"1,2-dibromo-3,4,5,6-tetrafluorobenzene",371.15,1,Fc1c(F)c(F)c(Br)c(Br)c1F,le15,0,0,0,0
"Mannitol, 1,6-dibromo-1,6-dideoxy-, D-",536.15,1,O[C@H](CBr)[C@@H](O)[C@H](O)[C@H](O)CBr,le15,0,0,0,0
"Phosphoric acid, diethyl p-(methylsulfonyl)phenyl ester",473.95,1,CCOP(=O)(OCC)Oc1ccc(S(C)(=O)=O)cc1,le15,0,0,0,1
"2H-1-Benzopyran-2-one, 4-hydroxy-3-(3-oxo-1-phenylbutyl)-",461.978,1,CC(=O)CC(c1ccccc1)c1c(O)c2ccccc2oc1=O,le15,0,0,0,0
Bis(4-nitrophenyl) disulphide,516.509,1,O=[N+]([O-])c1ccc(SSc2ccc([N+](=O)[O-])cc2)cc1,le15,0,0,0,0
"Phosphorothioic acid, O,O-diethyl O-(4-(methylsulfinyl)phenyl) ester",471.35,1,CCOP(=S)(OCC)Oc1ccc(S(C)=O)cc1,le15,0,0,0,1
"3,5-Pyrazolidinedione, 4-butyl-1,2-diphenyl-",447.45,1,CCCCC1C(=O)N(c2ccccc2)N(c2ccccc2)C1=O,le15,0,0,0,0
"Phosphoric acid, tripentyl ester (8CI)(9CI)",435.45,1,CCCCCOP(=O)(OCCCCC)OCCCCC,le15,0,0,0,1
"1H-Imidazole, 2-heptadecyl-4,5-dihydro-",492.65,1,CCCCCCCCCCCCCCCCCC1=NCCN1,le15,0,0,0,0
docos-1-ene,469.45,1,C=CCCCCCCCCCCCCCCCCCCCC,le15,0,0,0,0
"Phosphonothioic acid, methyl-, O-(4-nitrophenyl) O-phenyl ester",482.65,1,CP(=S)(Oc1ccccc1)Oc1ccc([N+](=O)[O-])cc1,le15,0,0,0,1
"Benzenesulfonamide, N-(5-(2-methoxyethoxy)-2-pyrimidinyl)-",538.55,1,COCCOc1cnc(NS(=O)(=O)c2ccccc2)nc1,le15,0,0,0,0
"Adenine, N-benzyl-9-(tetrahydro-2H-pyran-2-yl)- (8CI)",554.25,1,c1ccc(CNc2ncnc3c2ncn3C2CCCCO2)cc1,le15,0,0,0,0
"3-Heptanone, 6-(dimethylamino)-4,4-diphenyl-",399.602,1,CCC(=O)C(CC(C)N(C)C)(c1ccccc1)c1ccccc1,le15,0,0,0,0
"1-Piperidinebutanol, alpha,alpha-diphenyl-",506.65,1,OC(CCCN1CCCCC1)(c1ccccc1)c1ccccc1,le15,0,0,0,0
"Acetic acid, 2,4-dichlorophenoxy-, 4-chloro-2-butenyl ester",439.05,1,O=C(COc1ccc(Cl)cc1Cl)OCC=CCCl,le15,0,0,0,1
"Phosphonothioic acid, ethyl-, O-(2-chloro-4-nitrophenyl) O-ethyl ester",457.95,1,CCOP(=S)(CC)Oc1ccc([N+](=O)[O-])cc1Cl,le15,0,0,0,1
"Benzimidazole, 6-bromo-4-nitro-2-(trifluoromethyl)-",470.85,1,O=[N+]([O-])c1cc(Br)cc2nc(C(F)(F)F)[nH]c12,le15,0,0,0,0
"Benzimidazole, 4-bromo-6-nitro-2-(trifluoromethyl)-",470.85,1,O=[N+]([O-])c1cc(Br)c2[nH]c(C(F)(F)F)nc2c1,le15,0,0,0,0
"Benzene, 1,1'-(2-nitropropylidene)bis(4-chloro-",488.95,1,CC(C(c1ccc(Cl)cc1)c1ccc(Cl)cc1)[N+](=O)[O-],le15,0,0,0,0
"Benzenesulfonamide, 4-amino-N-(5,6-dimethoxy-4-pyrimidinyl)-",543.15,1,COc1ncnc(NS(=O)(=O)c2ccc(N)cc2)c1OC,le15,0,0,0,0
"Fluorene-9,9-dipropionic acid",583.95,1,O=C(O)CCC1(CCC(=O)O)c2ccccc2-c2ccccc21,le15,0,0,0,1
"1-Aziridineacetamide, N,N'-1,8-octanediylbis- (9CI)",560.45,1,O=C(CN1CC1)NCCCCCCCCNC(=O)CN1CC1,le15,0,0,0,0
hexadecyl 2-methylprop-2-enoate,441.95,1,C=C(C)C(=O)OCCCCCCCCCCCCCCCC,le15,0,0,0,0
[dimethyl(trimethylsilyloxy)silyl]oxy-dimethyl-trimethylsilyloxysilane,361.25,1,C[Si](C)(C)O[Si](C)(C)O[Si](C)(C)O[Si](C)(C)C,le15,1,1,0,0
"Ethanol, 2-(2,4-dichlorophenoxy)-, benzoate",443.95,1,O=C(OCCOc1ccc(Cl)cc1Cl)c1ccccc1,le15,0,0,0,0
"Benzenemethanol, 4-chloro-alpha-(4-chlorophenyl)-alpha-(ethoxymethyl)-",486.15,1,CCOCC(O)(c1ccc(Cl)cc1)c1ccc(Cl)cc1,le15,0,0,0,0
"Phenanthro(3,4-d)-1,3-dioxole-5-carboxylic acid, 6-nitro-",585.05,1,O=C(O)c1cc2c(c3c1c([N+](=O)[O-])cc1ccccc13)OCO2,le15,0,0,0,1
"p-Toluenesulfonamide, N-(5-isobutyl-1,3,4-thiadiazol-2-yl)-",507.95,1,Cc1ccc(S(=O)(=O)Nc2nnc(CC(C)C)s2)cc1,le15,0,0,0,0
"1-Piperidinepropanol, alpha-bicyclo(2.2.1)hept-5-en-2-yl-alpha-phenyl-",497.65,1,OC(CCN1CCCCC1)(c1ccccc1)C1CC2C=CC1C2,le15,0,0,0,0
"Acetic acid, (2,4,5-trichlorophenoxy)-, 2-methylpropyl ester",412.25,1,CC(C)COC(=O)COc1cc(Cl)c(Cl)cc1Cl,le15,0,0,0,1
"Quino(2,3-b)acridine-7,14-dione, 5,12-dihydro-",494.45,1,O=c1c2ccccc2[nH]c2cc3c(=O)c4ccccc4[nH]c3cc12,le15,0,0,0,0
"1,2-Benzenedicarboxylic acid, butyl phenylmethyl ester",471.45,1,CCCCOC(=O)c1ccccc1C(=O)OCc1ccccc1,le15,0,0,0,1