compound,flashpoint,pure substance,smiles,source,is_silicon,is_metallic,is_tin,is_acid
Hexamethyldisilthiane,299.15,1,C[Si](C)(C)S[Si](C)(C)C,didier12,1,1,0,0
Hexamethyldisilazane,281.15,1,C[Si](C)(C)N[Si](C)(C)C,didier12,1,1,0,0
Tris(dimethylamino)silane,298.15,1,CN(C)[SiH](N(C)C)N(C)C,didier12,1,1,0,0
Hexamethyltrisiloxane,293.15,1,C[Si](C)(C)O[SiH2]O[Si](C)(C)C,didier12,1,1,0,0
Phenylmethyldichlorosilane,340.15,1,Cl[SiH](Cl)Cc1ccccc1,didier12,1,1,0,0
Phenylmethylchlorosilane,355.15,1,Cl[SiH2]Cc1ccccc1,didier12,1,1,0,0
Methyltriacetoxysilane,358.15,1,CC(=O)O[Si](C)(OC(C)=O)OC(C)=O,didier12,1,1,0,0
Trivinylmethylsilane,288.15,1,C=CC([SiH3])(C=C)C=C,didier12,1,1,0,0
Cyclohexylmethyldichlorosilane,355.15,1,Cl[SiH](Cl)CC1CCCCC1,didier12,1,1,0,0
"1-(Trimethylsiloxy)-1,3-butadiene",298.15,1,C=CC=CO[Si](C)(C)C,didier12,1,1,0,0
2-Chloromethyl-3-trimethylsilyl-1-propene,316.15,1,C=C(CCl)C[Si](C)(C)C,didier12,1,1,0,0
n-Heptyltrichlorosilane,337.15,1,CCCCCCC[Si](Cl)(Cl)Cl,didier12,1,1,0,0
n-Hexylmethyldichlorosilane,358.15,1,CCCCCC[Si](C)(Cl)Cl,didier12,1,1,0,0
Vinylmethyldiethoxysilane,289.15,1,C=CC[SiH](OCC)OCC,didier12,1,1,0,0
N-(Trimethylsilyl)morpholine,300.15,1,C[Si](C)(C)N1CCOCC1,didier12,1,1,0,0
t-Butoxytrimethylsilane,287.15,1,CC(C)(C)O[Si](C)(C)C,didier12,1,1,0,0
Vinylpentamethyldisiloxane,285.15,1,C=C[Si](C)(C)O[Si](C)(C)C,didier12,1,1,0,0
(1-Methoxy-2-propoxy)trimethylsilane,293.15,1,COCC(C)O[Si](C)(C)C,didier12,1,1,0,0
Methyltriethoxysilane,297.15,1,CCO[Si](C)(OCC)OCC,didier12,1,1,0,0
(Diethylamino)trimethylsilane,283.15,1,CCN(CC)[Si](C)(C)C,didier12,1,1,0,0
Bis(trimethylsilyl)methane,285.15,1,C[Si](C)(C)C[Si](C)(C)C,didier12,1,1,0,0
Heptamethyldisilazane,300.15,1,CN([Si](C)(C)C)[Si](C)(C)C,didier12,1,1,0,0
Phenylethyldichlorosilane,365.15,1,Cl[SiH](Cl)CCc1ccccc1,didier12,1,1,0,0
Tetravinylsilane,291.15,1,C=C[Si](C=C)(C=C)C=C,didier12,1,1,0,0
Phenyldimethylsilane,311.15,1,C[SiH](C)c1ccccc1,didier12,1,1,0,0
Cyclopentadienyltrimethylsilane,302.15,1,C[Si](C)(C)C1C=CC=C1,didier12,1,1,0,0
(Cyclopentenyloxy)trimethylsilane,311.15,1,C[Si](C)(C)OC1=CCCC1,didier12,1,1,0,0
"(2,4-Pentadienyl)trimethylsilane",291.15,1,C=CC=CC[Si](C)(C)C,didier12,1,1,0,0
n-Octyltrichlorosilane,369.15,1,CCCCCCCC[Si](Cl)(Cl)Cl,didier12,1,1,0,0
n-Heptylmethyldichlorosilane,339.15,1,CCCCCCC[Si](C)(Cl)Cl,didier12,1,1,0,0
Tetramethyldivinyldisiloxane,292.15,1,C=C[Si](C)(C=C)O[Si](C)(C)C,didier12,1,1,0,0
Triethylacetoxysilane,314.15,1,CCC(CC)(CC)C(=O)O[SiH3],didier12,1,1,0,0
Vinyltriethoxysilane,307.15,1,C=C[Si](OCC)(OCC)OCC,didier12,1,1,0,0
"1,3-Divinyltetramethyldisilazane",307.15,1,C=C[Si](C)(C)N[Si](C)(C)C=C,didier12,1,1,0,0
Diethyldiethoxysilane,316.15,1,CCO[Si](CC)(CC)OCC,didier12,1,1,0,0
Tetraethoxysilane,323.15,1,CCO[Si](OCC)(OCC)OCC,didier12,1,1,0,0
Tetraethylsilane,305.15,1,CC[Si](CC)(CC)CC,didier12,1,1,0,0
Aminoethylaminopropyltrimethoxysilane,369.15,1,CO[Si](CCCNCCN)(OC)OC,didier12,1,1,0,0
Tetramethyldiethoxysiloxane,311.15,1,CCO[Si]([O])OC(C)(C)C(C)C,didier12,1,1,0,0
Octamethyltrisiloxane,303.15,1,C[Si](C)(C)O[Si](C)(C)O[Si](C)(C)C,didier12,1,1,0,0
Octamethylcyclotetrasiloxane,330.15,1,C[Si]1(C)O[Si](C)(C)O[Si](C)(C)O[Si](C)(C)O1,didier12,1,1,0,0
Octamethylcyclotetrasilazane,339.15,1,C[Si]1(C)N[Si](C)(C)N[Si](C)(C)N[Si](C)(C)N1,didier12,1,1,0,0
Tetrakisdimethylsiloxysilane,340.15,1,C[SiH](C)O[Si](O[SiH](C)C)(O[SiH](C)C)O[SiH](C)C,didier12,1,1,0,0
p-Chlorophenyltrimethylsilane,322.15,1,C[Si](C)(C)c1ccc(Cl)cc1,didier12,1,1,0,0
Phenyltrimethoxysilane,358.15,1,CO[Si](OC)(OC)c1ccccc1,didier12,1,1,0,0
Trimethylphenylsilane,313.15,1,C[Si](C)(C)c1ccccc1,didier12,1,1,0,0
Cyclohexylmethyldimethoxysilane,343.15,1,CO[SiH](CC1CCCCC1)OC,didier12,1,1,0,0
Hexyltrimethoxysilane,335.15,1,CCCCCC[Si](OC)(OC)OC,didier12,1,1,0,0
Triisopropylsilane,310.15,1,CC(C)[SiH](C(C)C)C(C)C,didier12,1,1,0,0
Tri-n-propylsilane,316.15,1,CCC[SiH](CCC)CCC,didier12,1,1,0,0
Propyltris(dimethylsiloxy)silane,323.15,1,CCC[Si](O[SiH](C)C)(O[SiH](C)C)O[SiH](C)C,didier12,1,1,0,0
Benzyltrimethylsilane,335.15,1,C[Si](C)(C)Cc1ccccc1,didier12,1,1,0,0
3-Methacryloxypropyltrimethoxysilane,365.15,1,C=C(C)C(=O)OCCC[Si](OC)(OC)OC,didier12,1,1,0,0
1-Heptynyltrimethylsilane,315.15,1,CCCCCC#C[Si](C)(C)C,didier12,1,1,0,0
n-Octyldimethylchlorosilane,370.15,1,CCCCCCCC[Si](C)(C)Cl,didier12,1,1,0,0
Bis(diethylamino)dimethylsilane,308.15,1,CCN(CC)[Si](C)(C)N(CC)CC,didier12,1,1,0,0
Decamethyltetrasiloxane,335.15,1,C[Si](C)(C)O[Si](C)(C)O[Si](C)(C)O[Si](C)(C)C,didier12,1,1,0,0
Decamethylcyclopentasiloxane,350.15,1,C[Si]1(C)O[Si](C)(C)O[Si](C)(C)O[Si](C)(C)O[Si](C)(C)O1,didier12,1,1,0,0
"2-(3,4-epoxycyclohexyl)ethyltrimethoxysilane",419.15,1,CO[Si](CCC1CCC2OC2C1)(OC)OC,didier12,1,1,0,0
n-Decylmethyldichlorosilane,393.15,1,CCCCCCCCCC[Si](C)(Cl)Cl,didier12,1,1,0,0
Vinyltriethylsilane,318.15,1,C=C[Si](CC)(CC)CC,didier12,1,1,0,0
Diphenyldichlorosilane,415.15,1,Cl[Si](Cl)(c1ccccc1)c1ccccc1,didier12,1,1,0,0
Phenyltriethoxysilane,393.15,1,CCO[Si](OCC)(OCC)c1ccccc1,didier12,1,1,0,0
Diphenylsilane,371.15,1,c1ccc([SiH2]c2ccccc2)cc1,didier12,1,1,0,0
Tetramethyltetravinylcyclotetrasilane,385.15,1,C=C[Si]1(C)[Si](C)(C=C)[Si](C)(C=C)[Si]1(C)C=C,didier12,1,1,0,0
n-Dodecyltrichlorosilane,435.15,1,CCCCCCCCCCCC[Si](Cl)(Cl)Cl,didier12,1,1,0,0
Tetra-n-propoxysilane,368.15,1,CCCO[Si](OCCC)(OCCC)OCCC,didier12,1,1,0,0
Hexaethyldisiloxane,349.15,1,CC[Si](CC)(CC)O[Si](CC)(CC)CC,didier12,1,1,0,0
Dodecamethylpentasiloxane,352.15,1,C[Si](C)(C)O[Si](C)(C)O[Si](C)(C)O[Si](C)(C)O[Si](C)(C)C,didier12,1,1,0,0
Dodecamethylcyclohexasiloxane,366.15,1,C[Si]1(C)O[Si](C)(C)O[Si](C)(C)O[Si](C)(C)O[Si](C)(C)O[Si](C)(C)O1,didier12,1,1,0,0
Methyldiphenylchlorosilane,411.15,1,C[Si](Cl)(c1ccccc1)c1ccccc1,didier12,1,1,0,0
n-Dodecylmethyldichlorosilane,416.15,1,CCCCCCCCCCCC[Si](C)(Cl)Cl,didier12,1,1,0,0
Diphenyldimethoxysilane,394.15,1,CO[Si](OC)(c1ccccc1)c1ccccc1,didier12,1,1,0,0
Octyltriethoxysilane,373.15,1,CCCCCCCC[Si](OCC)(OCC)OCC,didier12,1,1,0,0
Tetradecamethylhexasiloxane,375.15,1,C[Si](C)(C)O[Si](C)(C)O[Si](C)(C)O[Si](C)(C)O[Si](C)(C)O[Si](C)(C)C,didier12,1,1,0,0
Hexadecamethylheptasiloxane,406.15,1,C[Si](C)(C)O[Si](C)(C)O[Si](C)(C)O[Si](C)(C)O[Si](C)(C)O[Si](C)(C)O[Si](C)(C)C,didier12,1,1,0,0
Octadecamethyloctasiloxane,417.15,1,C[Si](C)(C)O[Si](C)(C)O[Si](C)(C)O[Si](C)(C)O[Si](C)(C)O[Si](C)(C)O[Si](C)(C)O[Si](C)(C)C,didier12,1,1,0,0
Vinyltris(methoxyethoxy)silane,353.15,1,C=C[Si](OCCOC)(OCCOC)OCCOC,didier12,1,1,0,0
Trimethyl(vinyloxy)silane,263.15,1,C=CO[Si](C)(C)C,didier12,1,1,0,0
Trichloro(3-cyanopropyl) Silane,365.15,1,N#CCCC[Si](Cl)(Cl)Cl,didier12,1,1,0,0
Trichloro(2-phenylethyl)silane,364.15,1,Cl[Si](Cl)(Cl)CCc1ccccc1,didier12,1,1,0,0
"Chlorodimethyl(3,3,3-trifluoropropyl) silane",293.15,1,C[Si](C)(Cl)CCC(F)(F)F,didier12,1,1,0,0
Vinylmethylbis (trimethylsiloxy) silane,324.15,1,C=CC[SiH](O[Si](C)(C)C)O[Si](C)(C)C,didier12,1,1,0,0
Trichloro(Chloromethyl) silane,342.15,1,ClC[Si](Cl)(Cl)Cl,didier12,1,1,0,0
Dimethyl(pentafluorophenyl) silane,313.15,1,C[SiH](C)c1c(F)c(F)c(F)c(F)c1F,didier12,1,1,0,0
Trichloro(p-chlorophenyl)silane,397.05,1,Clc1ccc([Si](Cl)(Cl)Cl)cc1,didier12,1,1,0,0
Trisilane,273.15,1,[SiH3][SiH2][SiH3],didier12,1,1,0,0
Trichlorononylsilane,387.15,1,[SiH3]CCCCCCCCC(Cl)(Cl)Cl,didier12,1,1,0,0
Dichloroethylsilane,263.75,1,[SiH3]CC(Cl)Cl,didier12,1,1,0,0
Trichloro(dichlorophenyl)silane,419.15,1,Clc1cccc([Si](Cl)(Cl)Cl)c1Cl,didier12,1,1,0,0
Tris(trimethylsilyl)silane,328.15,1,C[Si](C)(C)[SiH]([Si](C)(C)C)[Si](C)(C)C,didier12,1,1,0,0
Tris(trimethylsiloxy)silane,323.15,1,C[Si](C)(C)O[SiH](O[Si](C)(C)C)O[Si](C)(C)C,didier12,1,1,0,0
Hexadecyltrichlorosilane,427.15,1,CCCCCCCCCCCCCCCC[Si](Cl)(Cl)Cl,didier12,1,1,0,0
Dichlorosilane,236.15,1,Cl[SiH2]Cl,didier12,1,1,0,0
Methyldichlorosilane,241.15,1,C[SiH](Cl)Cl,didier12,1,1,0,0
Iodotrimethylsilane,288.15,1,C[Si](C)(C)I,didier12,1,1,0,0
Dimethyldichlorosilane,257.15,1,C[Si](C)(Cl)Cl,didier12,1,1,0,0
Bromomethyldimethylchlorosilane,314.15,1,C[Si](C)(Cl)CBr,didier12,1,1,0,0
Trimethylsilane,204.15,1,C[SiH](C)C,didier12,1,1,0,0
Dimethylvinylchlorosilane,268.15,1,CC(C)=C[SiH2]Cl,didier12,1,1,0,0
"1,3-Dichlorotetramethyldisiloxane",288.15,1,C[Si](C)(Cl)O[Si](C)(C)Cl,didier12,1,1,0,0
"1,1,3,3-Tetramethyldisiloxane",251.15,1,C[SiH](C)O[SiH](C)C,didier12,1,1,0,0
Tetramethyldisilazane,284.15,1,CN([SiH3])[Si](C)(C)C,didier12,1,1,0,0
Allyldimethylchlorosilane,278.15,1,C=CC[Si](C)(C)Cl,didier12,1,1,0,0
sec-Amyltrichlorosilane,303.15,1,CCCC(C)[Si](Cl)(Cl)Cl,didier12,1,1,0,0
n-Butylmethyldichlorosilane,303.15,1,CCCC[Si](C)(Cl)Cl,didier12,1,1,0,0
Bis(dimethylamino)methylsilane,270.15,1,CN(C)C([SiH3])N(C)C,didier12,1,1,0,0
Phenyltrichlorosilane,364.15,1,Cl[Si](Cl)(Cl)c1ccccc1,didier12,1,1,0,0
Dimethyldiacetoxysilane,310.15,1,CC(=O)O[Si](C)(C)OC(C)=O,didier12,1,1,0,0
1-Trimethylsilylpropyne,270.15,1,CC#C[Si](C)(C)C,didier12,1,1,0,0
Vinyldimethylethoxysilane,277.15,1,C=C[Si](C)(C)OCC,didier12,1,1,0,0
Allyloxytrimethylsilane,273.15,1,C=CCO[Si](C)(C)C,didier12,1,1,0,0
Allyltrimethoxysilane,319.15,1,C=CC[Si](OC)(OC)OC,didier12,1,1,0,0
3-Chloropropyltrimethoxysilane,348.15,1,CO[Si](CCCCl)(OC)OC,didier12,1,1,0,0
n-Propyltrimethoxysilane,298.15,1,CCC[Si](OC)(OC)OC,didier12,1,1,0,0
Hexamethyldisiloxane,270.15,1,C[Si](C)(C)O[Si](C)(C)C,didier12,1,1,0,0
Hexamethyldisilane,272.15,1,C[Si](C)(C)[Si](C)(C)C,didier12,1,1,0,0
Vinyldiethylmethylsilane,288.15,1,C=C[Si](C)(CC)CC,didier12,1,1,0,0
Isobutyltrimethoxysilane,315.15,1,CO[Si](CC(C)C)(OC)OC,didier12,1,1,0,0
Phenyldimethylchlorosilane,334.15,1,C[Si](C)(Cl)c1ccccc1,didier12,1,1,0,0
"(N,N-Dimethylamino)triethylsilane",299.15,1,CC[Si](CC)(CC)N(C)C,didier12,1,1,0,0
Vinyltriacetoxysilane,361.15,1,C=C[Si](OC(C)=O)(OC(C)=O)OC(C)=O,didier12,1,1,0,0
Ethyltriacetoxysilane,377.15,1,CC[Si](OC(C)=O)(OC(C)=O)OC(C)=O,didier12,1,1,0,0
3-(Trimethylsilyl)cyclopentene,299.15,1,C[Si](C)(C)C1C=CCC1,didier12,1,1,0,0
Vinyltriethylsilane,298.15,1,C=C[Si](CC)(CC)CC,didier12,1,1,0,0
n-Octylsilane,309.15,1,CCCCCCCC[SiH3],didier12,1,1,0,0
Methylphenyldimethoxysilane,349.15,1,CO[Si](C)(OC)c1ccccc1,didier12,1,1,0,0
2-Cyanoethyltriethoxysilane,359.15,1,CCO[Si](CCC#N)(OCC)OCC,didier12,1,1,0,0
3-Glycidoxypropyltrimethoxysilane,383.15,1,CO[Si](CCCOCC1CO1)(OC)OC,didier12,1,1,0,0
Di-t-butylmethylchlorosilane,342.15,1,CC(C)(C)[Si](C)(Cl)C(C)(C)C,didier12,1,1,0,0
Tri-n-propylchlorosilane,349.15,1,CCC[Si](Cl)(CCC)CCC,didier12,1,1,0,0
(Diisopropylamino)trimethylsilane,301.15,1,CC(C)N(C(C)C)[Si](C)(C)C,didier12,1,1,0,0
1-Chlorononamethyltetrasiloxane,347.15,1,C[Si](C)(C)O[Si](C)(C)O[Si](C)(C)O[Si](C)(C)Cl,didier12,1,1,0,0
Tristrimethylsiloxymethylsilane,336.15,1,C[Si](C)(C)OC([SiH3])(O[Si](C)(C)C)O[Si](C)(C)C,didier12,1,1,0,0
Diphenylmethylsilane,393.15,1,[SiH3]C(c1ccccc1)c1ccccc1,didier12,1,1,0,0
Trimethyl[(1-methylethenyl)oxy]silane,272.15,1,C=C(C)O[Si](C)(C)C,didier12,1,1,0,0
"Dichloromethyl-3,3,3-trifluoropropylsilane",288.15,1,FC(F)(F)CC[SiH2]C(Cl)Cl,didier12,1,1,0,0
[2-(chloromethoxy)ethyl]trimethylsilane,319.15,1,C[Si](C)(C)CCOCCl,didier12,1,1,0,0
Triphenylsilane,416.35,1,c1ccc([SiH](c2ccccc2)c2ccccc2)cc1,didier12,1,1,0,0
Trichlorosilane,245.15,1,Cl[SiH](Cl)Cl,didier12,1,1,0,0
"1,1bicyclohexyl",347.15,1,C1CCC(C2CCCCC2)CC1,le15,0,0,0,0
"1,1dichloroethane",267.0,1,CC(Cl)Cl,le15,0,0,0,0
"1,1dichloroethylene",248.0,1,C=C(Cl)Cl,le15,0,0,0,0
"1,1dichloropropane",280.0,1,CCC(Cl)Cl,le15,0,0,0,0
"1,1diethoxyethane",252.0,1,CCOC(C)OCC,le15,0,0,0,0
"1,1dimethoxyethane",256.0,1,COC(C)OC,le15,0,0,0,0
"1,1dimethyl1sila2oxacyclohexane",287.15,1,C[Si]1(C)CCCCO1,le15,1,1,0,0
"1,2butanediol",366.0,1,CCC(O)CO,le15,0,0,0,0
"1,2cyclohexanedione",357.0,1,O=C1CCCCC1=O,le15,0,0,0,0
"1,2dibromoethyltrichlorosilane",338.15,1,Cl[Si](Cl)(Cl)C(Br)CBr,le15,1,1,0,0
"1,2dichlorobenzene",340.0,1,Clc1ccccc1Cl,le15,0,0,0,0
"1,2dichlorobutane",299.0,1,CCC(Cl)CCl,le15,0,0,0,0
"1,2dichloroethane",286.0,1,ClCCCl,le15,0,0,0,0
"1,2dichloropropane",289.0,1,CC(Cl)CCl,le15,0,0,0,0
"1,2diethoxyethane",308.15,1,CCOCCOCC,le15,0,0,0,0
"1,2diethylBenzene",330.15,1,CCc1ccccc1CC,le15,0,0,0,0
"1,2dimethoxyethane",271.45,1,COCCOC,le15,0,0,0,0
"1,2dimethyl3propylBenzene",345.15,1,CCCc1cccc(C)c1C,le15,0,0,0,0
"1,2dimethylbenzene",305.0,1,Cc1ccccc1C,le15,0,0,0,0
"1,2dimethylcyclohexane",288.0,1,CC1CCCCC1C,le15,0,0,0,0
"1,2ethanediamine",307.0,1,NCCN,le15,0,0,0,0
"1,2ethanediol",384.0,1,OCCO,le15,0,0,0,0
"1,2ethanedithiol",323.0,1,SCCS,le15,0,0,0,0
"1,2hexadiene-",253.15,1,C=C=CCCC,le15,0,0,0,0
"1,2pentadiene-",233.15,1,C=C=CCC,le15,0,0,0,0
"1,2propadiene",172.0,1,C=C=C,le15,0,0,0,0
"1,2propanediamine",306.0,1,CC(N)CN,le15,0,0,0,0
"1,2propanediol",380.0,1,CC(O)CO,le15,0,0,0,0
"1,3butadiene",197.0,1,C=CC=C,le15,0,0,0,0
"1,3butanediol",394.0,1,CC(O)CCO,le15,0,0,0,0
"1,3cyclohexadiene",299.0,1,C1=CCCC=C1,le15,0,0,0,0
"1,3cyclopentadiene",298.0,1,C1=CCC=C1,le15,0,0,0,0
"1,3dibromoBenzene",366.15,1,Brc1cccc(Br)c1,le15,0,0,0,0
"1,3dichloro2butene",300.15,1,CC(Cl)=CCCl,le15,0,0,0,0
"1,3dichloro2propanol",358.15,1,OC(CCl)CCl,le15,0,0,0,0
"1,3dichloroBenzene",345.15,1,Clc1cccc(Cl)c1,le15,0,0,0,0
"1,3dichloropropane",293.0,1,ClCCCCl,le15,0,0,0,0
"1,3dichloroTetramethylDisiloxane",288.15,1,C[Si](C)(Cl)O[Si](C)(C)Cl,le15,1,1,0,0
"1,3diethenylBenzene",338.15,1,C=Cc1cccc(C=C)c1,le15,0,0,0,0
"1,3diethylBenzene",329.15,1,CCc1cccc(CC)c1,le15,0,0,0,0
"1,3diisopropylbenzene",349.0,1,CC(C)c1cccc(C(C)C)c1,le15,0,0,0,0
"1,3dimethylBenzene",298.15,1,Cc1cccc(C)c1,le15,0,0,0,0
"1,3dimethylbutylamine",285.95,1,CC(C)CC(C)N,le15,0,0,0,0
"1,3dimethylcyclohexane",278.0,1,CC1CCCC(C)C1,le15,0,0,0,0
"1,3dioxane",274.15,1,C1COCOC1,le15,0,0,0,0
"1,3dioxolane",275.0,1,C1COCO1,le15,0,0,0,0
"1,3divinylTetramethylDisilazane",307.15,1,C=C[Si](C)(C)N[Si](C)(C)C=C,le15,1,1,0,0
"1,3pentadiene-",231.15,1,C=CC=CC,le15,0,0,0,0
"1,3propanediamine",321.0,1,NCCCN,le15,0,0,0,0
"1,3propanediol",404.0,1,OCCCO,le15,0,0,0,0
"1,4butanediol",394.25,1,OCCCCO,le15,0,0,0,0
"1,4cyclohexadiene",267.0,1,C1=CCC=CC1,le15,0,0,0,0
"1,4dichloro2butene",326.15,1,ClCC=CCCl,le15,0,0,0,0
"1,4dichlorobenzene",339.15,1,Clc1ccc(Cl)cc1,le15,0,0,0,0
"1,4dichlorobutane",313.0,1,ClCCCCCl,le15,0,0,0,0
"1,4dicyanobutane",432.0,1,N#CCCCCC#N,le15,0,0,0,0
"1,4diethylbenzene",329.0,1,CCc1ccc(CC)cc1,le15,0,0,0,0
"1,4diisopropylbenzene",349.0,1,CC(C)c1ccc(C(C)C)cc1,le15,0,0,0,0
"1,4dimethylbenzene",298.0,1,Cc1ccc(C)cc1,le15,0,0,0,0
"1,4dimethylcyclohexane",283.0,1,CC1CCC(C)CC1,le15,0,0,0,0
"1,4dioxane",285.15,1,C1COCCO1,le15,0,0,0,0
"1,4hexadiene",252.15,1,C=CCC=CC,le15,0,0,0,0
"1,4pentadiene",277.0,1,C=CCC=C,le15,0,0,0,0
"1,4thioxane",315.35,1,C1CSCCO1,le15,0,0,0,0
"1,5cyclooctadiene",305.0,1,C1=CCCC=CCC1,le15,0,0,0,0
"1,5dichloropentane",299.0,1,ClCCCCCCl,le15,0,0,0,0
"1,5hexadiene",246.0,1,C=CCCC=C,le15,0,0,0,0
"1,5pentanediamine",335.15,1,NCCCCCN,le15,0,0,0,0
"1,5pentanediol",402.0,1,OCCCCCO,le15,0,0,0,0
"1,5pentanedithiol",368.0,1,SCCCCCS,le15,0,0,0,0
"1,6heptadiene",263.0,1,C=CCCCC=C,le15,0,0,0,0
"1,6heptadiyne",282.0,1,C#CCCCC#C,le15,0,0,0,0
"1,6hexanediamine",366.15,1,NCCCCCCN,le15,0,0,0,0
"1,6hexanediol",420.0,1,OCCCCCCO,le15,0,0,0,0
"1,7octadiene",282.0,1,C=CCCCCC=C,le15,0,0,0,0
"1,7octadiyne",296.0,1,C#CCCCCC#C,le15,0,0,0,0
"1,8nonadiene",299.0,1,C=CCCCCCC=C,le15,0,0,0,0
"1,8nonadiyne",314.0,1,C#CCCCCCC#C,le15,0,0,0,0
"1,9decadiene",316.15,1,C=CCCCCCCC=C,le15,0,0,0,0
1amino2propanol,350.35,1,CC(O)CN,le15,0,0,0,0
1bromo4methylBenzene,358.15,1,Cc1ccc(Br)cc1,le15,0,0,0,0
1bromobutane,297.05,1,CCCCBr,le15,0,0,0,0
1bromoheptane,333.75,1,CCCCCCCBr,le15,0,0,0,0
1bromohexane,330.35,1,CCCCCCBr,le15,0,0,0,0
1bromooctane,351.45,1,CCCCCCCCBr,le15,0,0,0,0
1bromopentane,304.15,1,CCCCCBr,le15,0,0,0,0
1bromopropane,298.15,1,CCCBr,le15,0,0,0,0
1bromovinylTrimethylSilane,288.15,1,C=C(Br)[Si](C)(C)C,le15,1,1,0,0
1butanethiol,274.85,1,CCCCS,le15,0,0,0,0
1butanol,302.15,1,CCCCO,le15,0,0,0,0
1butyne-,210.15,1,C#CCC,le15,0,0,0,0
1chloro2methylBenzene,324.15,1,Cc1ccccc1Cl,le15,0,0,0,0
1chloro4ethylbenzene,337.15,1,CCc1ccc(Cl)cc1,le15,0,0,0,0
1chloro4methylBenzene,325.15,1,Cc1ccc(Cl)cc1,le15,0,0,0,0
1chloroethyltrichlorosilane,288.15,1,CC(Cl)[Si](Cl)(Cl)Cl,le15,1,1,0,0
1chlorohexane,308.15,1,CCCCCCCl,le15,0,0,0,0
1chlorononamethylTetrasiloxane,347.15,1,C[Si](C)(C)O[Si](C)(C)O[Si](C)(C)O[Si](C)(C)Cl,le15,1,1,0,0
1chlorooctane,343.15,1,CCCCCCCCCl,le15,0,0,0,0
1decanol,355.15,1,CCCCCCCCCCO,le15,0,0,0,0
1dodecanethiol,360.95,1,CCCCCCCCCCCCS,le15,0,0,0,0
1ethenyl2ethylBenzene,331.15,1,C=Cc1ccccc1CC,le15,0,0,0,0
1ethenyl3ethylBenzene,333.15,1,C=Cc1cccc(CC)c1,le15,0,0,0,0
1ethenyl3methylBenzene,324.15,1,C=Cc1cccc(C)c1,le15,0,0,0,0
1ethenyl4ethylBenzene,334.15,1,C=Cc1ccc(CC)cc1,le15,0,0,0,0
1ethenyl4methylBenzene,319.15,1,C=Cc1ccc(C)cc1,le15,0,0,0,0
1ethoxy2propanol,315.15,1,CCOCC(C)O,le15,0,0,0,0
1ethyl2methylBenzene,312.15,1,CCc1ccccc1C,le15,0,0,0,0
1ethyl3methylBenzene,311.15,1,CCc1cccc(C)c1,le15,0,0,0,0
1ethyl4methylBenzene,309.15,1,CCc1ccc(C)cc1,le15,0,0,0,0
1heptanamine,308.15,1,CCCCCCCN,le15,0,0,0,0
1heptanethiol,314.15,1,CCCCCCCS,le15,0,0,0,0
1heptanol,346.15,1,CCCCCCCO,le15,0,0,0,0
1heptynylTrimethylSilane,315.15,1,CCCCCC#C[Si](C)(C)C,le15,1,1,0,0
1hexanethiol,293.75,1,CCCCCCS,le15,0,0,0,0
1hexanol,333.15,1,CCCCCCO,le15,0,0,0,0
1hexenylTrichloroSilane,333.15,1,CCCCC=C[Si](Cl)(Cl)Cl,le15,1,1,0,0
1Hindene,328.15,1,C1=Cc2ccccc2C1,le15,0,0,0,0
1Hpyrazole,355.15,1,c1cn[nH]c1,le15,0,0,0,0
1iodobutane,306.15,1,CCCCI,le15,0,0,0,0
1iodoheptane,352.05,1,CCCCCCCI,le15,0,0,0,0
1iodohexane,334.15,1,CCCCCCI,le15,0,0,0,0
1isopropoxy2propanol,309.15,1,CC(O)COC(C)C,le15,0,0,0,0
1methoxy2propaneamine,281.15,1,COCC(C)N,le15,0,0,0,0
1methoxy2propanol,305.15,1,COCC(C)O,le15,0,0,0,0
1methoxy2propanone,293.15,1,COCC(C)=O,le15,0,0,0,0
1methoxy2propoxyTrimethylSilane,293.15,1,COCC(C)O[Si](C)(C)C,le15,1,1,0,0
1methyl1Hindene,338.15,1,CC1C=Cc2ccccc21,le15,0,0,0,0
1methyl2propylBenzene,326.15,1,CCCc1ccccc1C,le15,0,0,0,0
1methyl3propylBenzene,325.15,1,CCCc1cccc(C)c1,le15,0,0,0,0
1methylethylBenzene,304.15,1,CC(C)c1ccccc1,le15,0,0,0,0
1methylpropylBenzene,325.15,1,CCC(C)c1ccccc1,le15,0,0,0,0
1nitropropane,308.75,1,CCC[N+](=O)[O-],le15,0,0,0,0
1nonanamine,335.15,1,CCCCCCCCCN,le15,0,0,0,0
1nonanethiol,351.15,1,CCCCCCCCCS,le15,0,0,0,0
1nonanol,348.15,1,CCCCCCCCCO,le15,0,0,0,0
1nonyne,306.15,1,C#CCCCCCCC,le15,0,0,0,0
1octanal,325.15,1,CCCCCCCC=O,le15,0,0,0,0
1octanethiol,341.15,1,CCCCCCCCS,le15,0,0,0,0
1octanol,354.15,1,CCCCCCCCO,le15,0,0,0,0
1octyne-,259.15,1,C#CCCCCCC,le15,0,0,0,0
1pentanethiol,291.45,1,CCCCCS,le15,0,0,0,0
1pentanol,306.15,1,CCCCCO,le15,0,0,0,0
1pentene3yne-,243.15,1,C=CC#CC,le15,0,0,0,0
1pentene4yne-,229.15,1,C#CCC=C,le15,0,0,0,0
1phenylheptane,368.15,1,CCCCCCCc1ccccc1,le15,0,0,0,0
1phenylhexane,356.15,1,CCCCCCc1ccccc1,le15,0,0,0,0
1phenyloctane,380.15,1,CCCCCCCCc1ccccc1,le15,0,0,0,0
1piperazineEthanamine,366.15,1,NCCN1CCNCC1,le15,0,0,0,0
1propanesulfonylchloride,353.15,1,CCCS(=O)(=O)Cl,le15,0,0,0,0
1propanethiol,252.55,1,CCCS,le15,0,0,0,0
1propanol,291.15,1,CCCO,le15,0,0,0,0
1propoxy2propanol,321.15,1,CCCOCC(C)O,le15,0,0,0,0
1propyne-,185.15,1,C#CC,le15,0,0,0,0
1tertButyl4ethylBenzene,343.15,1,CCc1ccc(C(C)(C)C)cc1,le15,0,0,0,0
1tetradecene,383.15,1,C=CCCCCCCCCCCCC,le15,0,0,0,0
1trimethylsilylpropyne-,270.15,1,CC#C[Si](C)(C)C,le15,1,1,0,0
1undecene,327.15,1,C=CCCCCCCCCC,le15,0,0,0,0
"2,2dichloropropane",268.0,1,CC(C)(Cl)Cl,le15,0,0,0,0
"2,2dimethyl1propanol",310.15,1,CC(C)(C)CO,le15,0,0,0,0
"2,2dimethyl3ethylpentane",286.15,1,CCC(CC)C(C)(C)C,le15,0,0,0,0
"2,2dimethylbutane",225.15,1,CCC(C)(C)C,le15,0,0,0,0
"2,2dimethylpropane",208.0,1,CC(C)(C)C,le15,0,0,0,0
"2,2dimethylpropanenitrile",277.0,1,CC(C)(C)C#N,le15,0,0,0,0
"2,3butanediol",358.0,1,CC(O)C(C)O,le15,0,0,0,0
"2,3butanedione",299.85,1,CC(=O)C(C)=O,le15,0,0,0,0
"2,3dichloro1propanol",366.45,1,OCC(Cl)CCl,le15,0,0,0,0
"2,3dihydro1Hindene",321.15,1,c1ccc2c(c1)CCC2,le15,0,0,0,0
"2,3dihydro5methylfuran",261.0,1,CC1=CCCO1,le15,0,0,0,0
"2,3dihydrofuran",249.0,1,C1=COCC1,le15,0,0,0,0
"2,3dimethyl1butene",255.0,1,C=C(C)C(C)C,le15,0,0,0,0
"2,3dimethyl2butene",257.0,1,CC(C)=C(C)C,le15,0,0,0,0