compound,flashpoint,pure substance,smiles,source,is_silicon,is_metallic,is_tin,is_acid
2-methyl-1-butene,226.0,1,CC(=C)CC,carroll11,0,0,0,0
2-methyl-2-butene,228.0,1,CC(C)=CC,carroll11,0,0,0,0
cyclopentene,243.0,1,C1=CCCC1,carroll11,0,0,0,0
4-methyl-1-pentene,241.0,1,CC(CC=C)C,carroll11,0,0,0,0
3-methyl-1-pentene,240.0,1,CC(C=C)CC,carroll11,0,0,0,0
cis-4-methyl-2-pentene,240.0,1,CC(\C=C/C)C,carroll11,0,0,0,0
trans-4-methyl-2-pentene,246.0,1,CC(/C=C/C)C,carroll11,0,0,0,0
2-methyl-1-pentene,246.0,1,CC(=C)CCC,carroll11,0,0,0,0
2-ethyl-1-butene,247.0,1,C(C)C(=C)CC,carroll11,0,0,0,0
"2,3-dimethyl-2-butene",253.0,1,CC(C)=C(C)C,carroll11,0,0,0,0
methylenecyclopentane,255.0,1,C=C1CCCC1,carroll11,0,0,0,0
1-methylcyclopentene,254.0,1,CC1=CCCC1,carroll11,0,0,0,0
"2,3,3-trimethyl-1-butene",256.0,1,CC(=C)C(C)(C)C,carroll11,0,0,0,0
cyclohexene,256.0,1,C1=CCCCC1,carroll11,0,0,0,0
3-methyl-1-hexene,255.0,1,CC(C=C)CCC,carroll11,0,0,0,0
"2,3-dimethyl-1-pentene",256.0,1,CC(=C)C(CC)C,carroll11,0,0,0,0
3-ethyl-1-pentene,256.0,1,C(C)C(C=C)CC,carroll11,0,0,0,0
5-methyl-1-hexene,263.0,1,CC(CCC=C)C,carroll11,0,0,0,0
4-methyl-1-hexene,258.0,1,CC(CC=C)CC,carroll11,0,0,0,0
2-methyl-1-hexene,265.0,1,CC(=C)CCCC,carroll11,0,0,0,0
2-ethyl-1-pentene,263.0,1,C(C)C(=C)CCC,carroll11,0,0,0,0
3-ethyl-2-pentene,267.0,1,C(C)C(=CC)CC,carroll11,0,0,0,0
2-norbornene,259.0,1,C12C=CC(CC1)C2,carroll11,0,0,0,0
"2,4,4-trimethyl-1-pentene",269.0,1,CC(=C)CC(C)(C)C,carroll11,0,0,0,0
4-methylcyclohexene,272.0,1,CC1CC=CCC1,carroll11,0,0,0,0
methylenecyclohexane,271.0,1,C=C1CCCCC1,carroll11,0,0,0,0
3-methylcyclohexene,270.0,1,CC1C=CCCC1,carroll11,0,0,0,0
"2,4,4-trimethyl-2-pentene",272.0,1,CC(C)=CC(C)(C)C,carroll11,0,0,0,0
1-methylcyclohexene,272.0,1,CC1=CCCCC1,carroll11,0,0,0,0
3-ethyl-1-hexene,274.0,1,C(C)C(C=C)CCC,carroll11,0,0,0,0
4-methyl-1-heptene,275.0,1,CC(CC=C)CCC,carroll11,0,0,0,0
2-methyl-1-heptene,283.0,1,CC(=C)CCCCC,carroll11,0,0,0,0
2-methyl-2-heptene,282.0,1,CC(C)=CCCCC,carroll11,0,0,0,0
allylcyclopentane,285.0,1,C(C=C)C1CCCC1,carroll11,0,0,0,0
vinylcyclohexane,294.0,1,C(=C)C1CCCCC1,carroll11,0,0,0,0
7-methyl-1-octene,291.0,1,CC(CCCCC=C)C,carroll11,0,0,0,0
2-carene,311.0,1,C12C=C(CCC1C2(C)C)C,carroll11,0,0,0,0
isoprene,225.0,1,C=CC(C)=C,carroll11,0,0,0,0
"2,3-dimethyl-1,3-butadiene",251.0,1,CC(=C)C(=C)C,carroll11,0,0,0,0
"4-methyl-1,3-pentadiene",255.0,1,CC(=CC=C)C,carroll11,0,0,0,0
"1,6-heptadiene",263.0,1,C=CCCCC=C,carroll11,0,0,0,0
"1,7-octadiene",278.0,1,C=CCCCCC=C,carroll11,0,0,0,0
"2,5-dimethyl-2,4-hexadiene",297.0,1,CC(C)=CC=C(C)C,carroll11,0,0,0,0
"1,8-nonadiene",299.0,1,C=CCCCCCC=C,carroll11,0,0,0,0
"1,3-cyclohexadiene",257.0,1,C1=CC=CCC1,carroll11,0,0,0,0
"1,4-cyclohexadiene",262.0,1,C1=CCC=CC1,carroll11,0,0,0,0
4-vinyl-1-cyclohexene,289.0,1,C(=C)C1CC=CCC1,carroll11,0,0,0,0
"1,5-cyclooctadiene",308.0,1,C1=CCCC=CCC1,carroll11,0,0,0,0
"2,5-norbornadiene",262.0,1,C12C=CC(C=C1)C2,carroll11,0,0,0,0
5-ethylidene-2-norbornene,302.0,1,C(C)=C1C2C=CC(C1)C2,carroll11,0,0,0,0
"1,3,5,7-cyclooctatetraene",295.0,1,C1=CC=CC=CC=C1,carroll11,0,0,0,0
1-pentyne,239.0,1,C#CCCC,carroll11,0,0,0,0
1-hexyne,253.0,1,C#CCCCC,carroll11,0,0,0,0
1-heptyne,271.0,1,C#CCCCCC,carroll11,0,0,0,0
1-octyne,289.0,1,C#CCCCCCC,carroll11,0,0,0,0
1-nonyne,306.0,1,C#CCCCCCCC,carroll11,0,0,0,0
1-decyne,321.0,1,C#CCCCCCCCC,carroll11,0,0,0,0
1-undecyne,338.0,1,C#CCCCCCCCCC,carroll11,0,0,0,0
1-dodecyne,352.0,1,C#CCCCCCCCCCC,carroll11,0,0,0,0
1-tridecyne,366.0,1,C#CCCCCCCCCCCC,carroll11,0,0,0,0
2-pentyne,243.0,1,CC#CCC,carroll11,0,0,0,0
2-hexyne,263.0,1,CC#CCCC,carroll11,0,0,0,0
2-heptyne,281.0,1,CC#CCCCC,carroll11,0,0,0,0
2-octyne,297.0,1,CC#CCCCCC,carroll11,0,0,0,0
2-nonyne,312.0,1,CC#CCCCCCC,carroll11,0,0,0,0
2-decyne,326.0,1,CC#CCCCCCCC,carroll11,0,0,0,0
2-dodecyne,351.0,1,CC#CCCCCCCCCC,carroll11,0,0,0,0
3-hexyne,259.0,1,CCC#CCC,carroll11,0,0,0,0
3-heptyne,278.0,1,CCC#CCCC,carroll11,0,0,0,0
3-nonyne,311.0,1,CCC#CCCCCC,carroll11,0,0,0,0
4-nonyne,308.0,1,CCCC#CCCCC,carroll11,0,0,0,0
4-octyne,291.0,1,CCCC#CCCC,carroll11,0,0,0,0
3-decyne,325.0,1,CCC#CCCCCCC,carroll11,0,0,0,0
4-decyne,325.0,1,CCCC#CCCCCC,carroll11,0,0,0,0
4-undecyne,339.0,1,CCCC#CCCCCCC,carroll11,0,0,0,0
5-undecyne,339.0,1,CCCCC#CCCCCC,carroll11,0,0,0,0
"3,3-dimethyl-1-butyne",239.0,1,CC(C#C)(C)C,carroll11,0,0,0,0
4-methyl-1-pentyne,249.0,1,CC(CC#C)C,carroll11,0,0,0,0
"4,4-dimethyl-2-pentyne",263.0,1,CC(C#CC)(C)C,carroll11,0,0,0,0
5-methyl-1-hexyne,266.0,1,CC(CCC#C)C,carroll11,0,0,0,0
"1,6-heptadiyne",282.0,1,C#CCCCC#C,carroll11,0,0,0,0
"1,7-octadiyne",296.0,1,C#CCCCCC#C,carroll11,0,0,0,0
"1,8-nonadiyne",315.0,1,C#CCCCCCC#C,carroll11,0,0,0,0
benzene,262.0,1,C1=CC=CC=C1,carroll11,0,0,0,0
toluene,280.0,1,CC1=CC=CC=C1,carroll11,0,0,0,0
ethylbenzene,294.0,1,C(C)C1=CC=CC=C1,carroll11,0,0,0,0
propylbenzene,303.0,1,C(CC)C1=CC=CC=C1,carroll11,0,0,0,0
butylbenzene,323.0,1,C(CCC)C1=CC=CC=C1,carroll11,0,0,0,0
pentylbenzene,339.0,1,C(CCCC)C1=CC=CC=C1,carroll11,0,0,0,0
hexylbenzene,356.0,1,C(CCCCC)C1=CC=CC=C1,carroll11,0,0,0,0
heptylbenzene,368.0,1,C(CCCCCC)C1=CC=CC=C1,carroll11,0,0,0,0
octylbenzene,380.0,1,C(CCCCCCC)C1=CC=CC=C1,carroll11,0,0,0,0
nonylbenzene,390.0,1,C(CCCCCCCC)C1=CC=CC=C1,carroll11,0,0,0,0
undecylbenzene,417.0,1,C(CCCCCCCCCC)C1=CC=CC=C1,carroll11,0,0,0,0
p-xylene,298.0,1,C1(=CC=C(C=C1)C)C,carroll11,0,0,0,0
m-xylene,298.0,1,C1(=CC(=CC=C1)C)C,carroll11,0,0,0,0
o-xylene,303.0,1,C=1(C(=CC=CC1)C)C,carroll11,0,0,0,0
cumene,304.0,1,C1(=CC=CC=C1)C(C)C,carroll11,0,0,0,0
p-ethyltoluene,309.0,1,C(C)C1=CC=C(C)C=C1,carroll11,0,0,0,0
m-ethyltoluene,311.0,1,C(C)C=1C=C(C)C=CC1,carroll11,0,0,0,0
o-ethyltoluene,312.0,1,C(C)C1=C(C)C=CC=C1,carroll11,0,0,0,0
"1,3,5-trimethylbenzene",317.0,1,CC1=CC(=CC(=C1)C)C,carroll11,0,0,0,0
"1,2,4-trimethylbenzene",319.0,1,CC1=C(C=C(C=C1)C)C,carroll11,0,0,0,0
tert-butylbenzene,317.0,1,C(C)(C)(C)C1=CC=CC=C1,carroll11,0,0,0,0
isobutylbenzene,323.0,1,C(C(C)C)C1=CC=CC=C1,carroll11,0,0,0,0
m-isopropyltoluene,320.0,1,C(C)(C)C=1C=C(C)C=CC1,carroll11,0,0,0,0
"1,2,3-trimethylbenzene",324.0,1,CC1=C(C(=CC=C1)C)C,carroll11,0,0,0,0
p-isopropyltoluene,320.0,1,C(C)(C)C1=CC=C(C)C=C1,carroll11,0,0,0,0
o-isopropyltoluene,323.0,1,C(C)(C)C1=C(C)C=CC=C1,carroll11,0,0,0,0
m-diethylbenzene,324.0,1,C(C)C1=CC(=CC=C1)CC,carroll11,0,0,0,0
m-propyltoluene,325.0,1,C(CC)C=1C=C(C)C=CC1,carroll11,0,0,0,0
p-diethylbenzene,328.0,1,C(C)C1=CC=C(C=C1)CC,carroll11,0,0,0,0
o-diethylbenzene,328.0,1,C(C)C1=C(C=CC=C1)CC,carroll11,0,0,0,0
neopentylbenzene,323.0,1,C(C(C)(C)C)C1=CC=CC=C1,carroll11,0,0,0,0
"2-ethyl-1,4-dimethylbenzene",329.0,1,C(C)C1=C(C=CC(=C1)C)C,carroll11,0,0,0,0
"1-ethyl-2,4-dimethylbenzene",330.0,1,C(C)C1=C(C=C(C=C1)C)C,carroll11,0,0,0,0
"4-ethyl-1,2-dimethylbenzene",331.0,1,C(C)C1=CC(=C(C=C1)C)C,carroll11,0,0,0,0
1-ethyl-3-isopropylbenzene,336.0,1,C(C)C1=CC(=CC=C1)C(C)C,carroll11,0,0,0,0
"1-ethyl-2,3-dimethylbenzene",338.0,1,C(C)C1=C(C(=CC=C1)C)C,carroll11,0,0,0,0
1-phenyl-2-methylbutane,337.0,1,C1(=CC=CC=C1)CC(CC)C,carroll11,0,0,0,0
isopentylbenzene,335.0,1,C(CC(C)C)C1=CC=CC=C1,carroll11,0,0,0,0
"1,2,3,5-tetramethylbenzene",336.0,1,CC1=C(C(=CC(=C1)C)C)C,carroll11,0,0,0,0
"1,3-diisopropylbenzene",349.0,1,C(C)(C)C1=CC(=CC=C1)C(C)C,carroll11,0,0,0,0
"1,2,3,4-tetramethylbenzene",341.0,1,CC1=C(C(=C(C=C1)C)C)C,carroll11,0,0,0,0
2-phenyl-2-methylbutane,332.0,1,C1(=CC=CC=C1)C(C)(CC)C,carroll11,0,0,0,0
"1,2-dimethyl-3-propylbenzene",345.0,1,CC1=C(C(=CC=C1)CCC)C,carroll11,0,0,0,0
"1,4-diisopropylbenzene",349.0,1,C(C)(C)C1=CC=C(C=C1)C(C)C,carroll11,0,0,0,0
"1,2,3,4-tetrahydronaphthalene",344.0,1,C1CCCC2=CC=CC=C12,carroll11,0,0,0,0
cyclohexylbenzene,371.0,1,C1(CCCCC1)C1=CC=CC=C1,carroll11,0,0,0,0
(1-methylheptyl)benzene,373.0,1,CC(CCCCCC)C1=CC=CC=C1,carroll11,0,0,0,0
diphenylmethane,400.0,1,C1(=CC=CC=C1)CC1=CC=CC=C1,carroll11,0,0,0,0
ethylformate,254.0,1,C(C)OC=O,carroll11,0,0,0,0
propylformate,270.0,1,C(CC)OC=O,carroll11,0,0,0,0
butylformate,291.0,1,C(CCC)OC=O,carroll11,0,0,0,0
pentylformate,299.0,1,C(CCCC)OC=O,carroll11,0,0,0,0
hexylformate,317.0,1,C(CCCCC)OC=O,carroll11,0,0,0,0
heptylformate,333.0,1,C(CCCCCC)OC=O,carroll11,0,0,0,0
octylformate,342.0,1,C(CCCCCCC)OC=O,carroll11,0,0,0,0
nonylformate,361.0,1,C(CCCCCCCC)OC=O,carroll11,0,0,0,0
decylformate,373.0,1,C(CCCCCCCCC)OC=O,carroll11,0,0,0,0
isopropylformate,259.0,1,C(C)(C)OC=O,carroll11,0,0,0,0
tert-butylformate,264.0,1,C(C)(C)(C)OC=O,carroll11,0,0,0,0
isopentylformate,295.0,1,C(CC(C)C)OC=O,carroll11,0,0,0,0
isobutylformate,277.0,1,C(C(C)C)OC=O,carroll11,0,0,0,0
cyclohexylformate,324.0,1,C1(CCCCC1)C(=O)[O-],carroll11,0,0,0,0
methylacetate,260.0,1,COC(C)=O,carroll11,0,0,0,0
ethylacetate,269.0,1,C(C)OC(C)=O,carroll11,0,0,0,0
propylacetate,283.0,1,C(CC)OC(C)=O,carroll11,0,0,0,0
butylacetate,298.0,1,C(CCC)OC(C)=O,carroll11,0,0,0,0
pentylacetate,312.0,1,C(CCCC)OC(C)=O,carroll11,0,0,0,0
hexylacetate,328.0,1,C(CCCCC)OC(C)=O,carroll11,0,0,0,0
heptylacetate,340.0,1,C(CCCCCC)OC(C)=O,carroll11,0,0,0,0
octylacetate,355.0,1,C(CCCCCCC)OC(C)=O,carroll11,0,0,0,0
nonylacetate,364.0,1,C(CCCCCCCC)OC(C)=O,carroll11,0,0,0,0
decylacetate,377.0,1,C(CCCCCCCCC)OC(C)=O,carroll11,0,0,0,0
undecylacetate,384.0,1,C(CCCCCCCCCC)OC(C)=O,carroll11,0,0,0,0
dodecylacetate,393.0,1,C(CCCCCCCCCCC)OC(C)=O,carroll11,0,0,0,0
isopropylacetate,275.0,1,C(C)(C)OC(C)=O,carroll11,0,0,0,0
tert-butylacetate,277.0,1,C(C)(C)(C)OC(C)=O,carroll11,0,0,0,0
sec-butylacetate,289.0,1,C(C)(CC)OC(C)=O,carroll11,0,0,0,0
isobutylacetate,291.0,1,C(C(C)C)OC(C)=O,carroll11,0,0,0,0
2-pentylacetate,305.0,1,C(CCCC)CC(=O)[O-],carroll11,0,0,0,0
isopentylacetate,309.0,1,C(CC(C)C)OC(C)=O,carroll11,0,0,0,0
tert-pentylacetate,298.0,1,C(C)(C)(CC)OC(C)=O,carroll11,0,0,0,0
cyclohexylacetate,331.0,1,C1(CCCCC1)CC(=O)[O-],carroll11,0,0,0,0
cyclodecylacetate,379.0,1,C1(CCCCCCCCC1)CC(=O)[O-],carroll11,0,0,0,0
methylpropanoate,271.0,1,COC(CC)=O,carroll11,0,0,0,0
ethylpropanoate,285.0,1,C(C)OC(CC)=O,carroll11,0,0,0,0
tert-butylpropanoate,293.0,1,C(C)(C)(C)OC(CC)=O,carroll11,0,0,0,0
propylpropanoate,295.0,1,C(CC)OC(CC)=O,carroll11,0,0,0,0
butylpropanoate,311.0,1,C(CCC)OC(CC)=O,carroll11,0,0,0,0
isopentylpropanoate,319.0,1,C(CC(C)C)OC(CC)=O,carroll11,0,0,0,0
pentylpropanoate,326.0,1,C(CCCC)OC(CC)=O,carroll11,0,0,0,0
hexylpropanoate,338.0,1,C(CCCCC)OC(CC)=O,carroll11,0,0,0,0
cyclohexylpropanoate,341.0,1,C1(CCCCC1)OC(CC)=O,carroll11,0,0,0,0
ethylbutanoate,293.0,1,C(C)OC(CCC)=O,carroll11,0,0,0,0
isopropylbutanoate,297.0,1,C(C)(C)OC(CCC)=O,carroll11,0,0,0,0
propylbutanoate,308.0,1,C(CC)OC(CCC)=O,carroll11,0,0,0,0
isobutylbutanoate,319.0,1,C(C(C)C)OC(CCC)=O,carroll11,0,0,0,0
butylbutanoate,322.0,1,C(CCC)OC(CCC)=O,carroll11,0,0,0,0
isopentylbutanoate,332.0,1,C(CC(C)C)OC(CCC)=O,carroll11,0,0,0,0
methylpentanoate,295.0,1,COC(CCCC)=O,carroll11,0,0,0,0
ethylpentanoate,308.0,1,C(C)OC(CCCC)=O,carroll11,0,0,0,0
methylhexanoate,314.0,1,COC(CCCCC)=O,carroll11,0,0,0,0
methylheptanoate,325.0,1,COC(CCCCCC)=O,carroll11,0,0,0,0
methyloctanoate,342.0,1,COC(CCCCCCC)=O,carroll11,0,0,0,0
methyl2-methylpropanoate,276.0,1,COC(C(C)C)=O,carroll11,0,0,0,0
ethyl2-methylpropanoate,286.0,1,C(C)OC(C(C)C)=O,carroll11,0,0,0,0
methylcyclopropanecarboxylate,291.0,1,COC(=O)C1CC1,carroll11,0,0,0,0
propyl2-methylpropanoate,303.0,1,C(CC)OC(C(C)C)=O,carroll11,0,0,0,0
isobutyl2-methylpropanoate,311.0,1,C(C(C)C)OC(C(C)C)=O,carroll11,0,0,0,0
methylcyclohexanecarboxylate,333.0,1,COC(=O)C1CCCCC1,carroll11,0,0,0,0
4-methyl-4-vinylbutyrolactone,348.0,1,CC1(CCC(=O)O1)C=C,carroll11,0,0,0,0
isopropylmethylether,226.0,1,C(C)(C)OC,carroll11,0,0,0,0
diethylether,233.0,1,C(C)OCC,carroll11,0,0,0,0
propyleneoxide,236.0,1,C1C(C)O1,carroll11,0,0,0,0
tert-butylmethylether,245.0,1,C(C)(C)(C)OC,carroll11,0,0,0,0
isobutylmethylether,244.0,1,C(C(C)C)OC,carroll11,0,0,0,0
2-methoxybutane,244.0,1,COC(C)CC,carroll11,0,0,0,0
ethylpropylether,248.0,1,C(C)OCCC,carroll11,0,0,0,0
tetrahydrofuran,252.0,1,O1CCCC1,carroll11,0,0,0,0
diisopropylether,245.0,1,C(C)(C)OC(C)C,carroll11,0,0,0,0
butylmethylether,263.0,1,C(CCC)OC,carroll11,0,0,0,0
2-methyltetrahydrofuran,261.0,1,CC1OCCC1,carroll11,0,0,0,0
methyltert-pentylether,266.0,1,COC(C)(C)CC,carroll11,0,0,0,0
butylethylether,268.0,1,C(CCC)OCC,carroll11,0,0,0,0
cyclopentylmethylether,272.0,1,C1(CCCC1)OC,carroll11,0,0,0,0
di-sec-butylether,288.0,1,C(C)(CC)OC(C)CC,carroll11,0,0,0,0
cyclohexeneoxide,297.0,1,C12C(CCCC1)O2,carroll11,0,0,0,0
cyclohexylmethylether,294.0,1,C1(CCCCC1)OC,carroll11,0,0,0,0
dibutylether,298.0,1,C(CCC)OCCCC,carroll11,0,0,0,0
diisopentylether,319.0,1,C(CC(C)C)OCCC(C)C,carroll11,0,0,0,0
dipentylether,330.0,1,C(CCCC)OCCCCC,carroll11,0,0,0,0
diethoxymethane,268.0,1,C(C)OCOCC,carroll11,0,0,0,0
"1,1-dimethoxyethane",256.0,1,COC(C)OC,carroll11,0,0,0,0
"1,2-dimethoxyethane",271.0,1,COCCOC,carroll11,0,0,0,0
isopropylglycidylether,306.0,1,C(C)(C)OCC1CO1,carroll11,0,0,0,0
triethoxymethane,308.0,1,C(C)OC(OCC)OCC,carroll11,0,0,0,0
"1,3-dioxolane",267.0,1,O1COCC1,carroll11,0,0,0,0
"2-methyl-1,3-dioxolane",271.0,1,CC1OCCO1,carroll11,0,0,0,0
"1,4-dioxane",284.0,1,O1CCOCC1,carroll11,0,0,0,0
propanal,246.0,1,C(CC)=O,carroll11,0,0,0,0
butanal,266.0,1,C(CCC)=O,carroll11,0,0,0,0
pentanal,281.0,1,C(CCCC)=O,carroll11,0,0,0,0
hexanal,298.0,1,C(CCCCC)=O,carroll11,0,0,0,0
heptanal,313.0,1,C(CCCCCC)=O,carroll11,0,0,0,0
octanal,324.0,1,C(CCCCCCC)=O,carroll11,0,0,0,0
nonanal,336.0,1,C(CCCCCCCC)=O,carroll11,0,0,0,0
decanal,356.0,1,C(CCCCCCCCC)=O,carroll11,0,0,0,0
undecanal,368.0,1,C(CCCCCCCCCC)=O,carroll11,0,0,0,0
dodecanal,375.0,1,C(CCCCCCCCCCC)=O,carroll11,0,0,0,0
2-methylpropanal,254.0,1,CC(C=O)C,carroll11,0,0,0,0
acetone,253.0,1,CC(=O)C,carroll11,0,0,0,0
2-butanone,266.0,1,CC(CC)=O,carroll11,0,0,0,0
2-heptanone,312.0,1,CC(CCCCC)=O,carroll11,0,0,0,0
2-octanone,329.0,1,CC(CCCCCC)=O,carroll11,0,0,0,0
2-nonanone,341.0,1,CC(CCCCCCC)=O,carroll11,0,0,0,0
2-decanone,358.0,1,CC(CCCCCCCC)=O,carroll11,0,0,0,0
2-undecanone,362.0,1,CC(CCCCCCCCC)=O,carroll11,0,0,0,0
2-dodecanone,381.0,1,CC(CCCCCCCCCC)=O,carroll11,0,0,0,0
3-pentanone,280.0,1,CCC(CC)=O,carroll11,0,0,0,0
3-hexanone,296.0,1,CCC(CCC)=O,carroll11,0,0,0,0
3-heptanone,311.0,1,CCC(CCCC)=O,carroll11,0,0,0,0
3-octanone,324.0,1,CCC(CCCCC)=O,carroll11,0,0,0,0
3-nonanone,336.0,1,CCC(CCCCCC)=O,carroll11,0,0,0,0
3-undecanone,362.0,1,CCC(CCCCCCCC)=O,carroll11,0,0,0,0
3-methyl-2-butanone,272.0,1,CC(C(C)=O)C,carroll11,0,0,0,0
cyclobutanone,283.0,1,C1(CCC1)=O,carroll11,0,0,0,0
pinacolone,278.0,1,CC(C(C)(C)C)=O,carroll11,0,0,0,0
cyclopropylmethylketone,286.0,1,C1(CC1)C(=O)C,carroll11,0,0,0,0
2-methyl-3-pentanone,289.0,1,CC(C)C(CC)=O,carroll11,0,0,0,0
4-methyl-2-pentanone,287.0,1,CC(CC(C)=O)C,carroll11,0,0,0,0
2-ethylbutanal,294.0,1,C(C)C(C=O)CC,carroll11,0,0,0,0
3-methyl-2-pentanone,285.0,1,CC(C(C)=O)CC,carroll11,0,0,0,0
cyclopentanone,299.0,1,C1(CCCC1)=O,carroll11,0,0,0,0
3-ethylcyclopentanone,319.0,1,C(C)C1CC(CC1)=O,carroll11,0,0,0,0
"trans-3,4-dimethylcyclopentanone",314.0,1,C[C@@H]1CC(C[C@H]1C)=O,carroll11,0,0,0,0
2-butylcyclopentanone,341.0,1,C(CCC)C1C(CCC1)=O,carroll11,0,0,0,0
3-methylcyclopentanone,307.0,1,CC1CC(CC1)=O,carroll11,0,0,0,0
2-methylcyclopentanone,299.0,1,CC1C(CCC1)=O,carroll11,0,0,0,0
2-pentylcyclopentanone,351.0,1,C(CCCC)C1C(CCC1)=O,carroll11,0,0,0,0
"trans-2,4-dimethylcyclopentanone",315.0,1,C[C@@H]1C(C[C@H](C1)C)=O,carroll11,0,0,0,0
"2,2-dimethylcyclopentanone",306.0,1,CC1(C(CCC1)=O)C,carroll11,0,0,0,0
2-cyclopentylcyclopentanone,363.0,1,C1(CCCC1)C1C(CCC1)=O,carroll11,0,0,0,0
"2,4,4-trimethylcyclopentanone",316.0,1,CC1C(CC(C1)(C)C)=O,carroll11,0,0,0,0
3-tert-butylcyclopentanone,337.0,1,C(C)(C)(C)C1CC(CC1)=O,carroll11,0,0,0,0
cyclopentanecarboxaldehyde,301.0,1,C1(CCCC1)C=O,carroll11,0,0,0,0
5-methyl-2-hexanone,309.0,1,CC(CCC(C)=O)C,carroll11,0,0,0,0
cyclohexanone,316.0,1,C1(CCCCC1)=O,carroll11,0,0,0,0
2-methoxycyclohexanone,342.0,1,COC1C(CCCC1)=O,carroll11,0,0,0,0
3-methylcyclohexanone,321.0,1,CC1CC(CCC1)=O,carroll11,0,0,0,0
2-ethylcyclohexanone,332.0,1,C(C)C1C(CCCC1)=O,carroll11,0,0,0,0
2-isopropylcyclohexanone,338.0,1,C(C)(C)C1C(CCCC1)=O,carroll11,0,0,0,0
2-methylcyclohexanone,319.0,1,CC1C(CCCC1)=O,carroll11,0,0,0,0
4-methylcyclohexanone,321.0,1,CC1CCC(CC1)=O,carroll11,0,0,0,0
4-ethylcyclohexanone,336.0,1,C(C)C1CCC(CC1)=O,carroll11,0,0,0,0
4-propylcyclohexanone,359.0,1,C(CC)C1CCC(CC1)=O,carroll11,0,0,0,0
4-isopropylcyclohexanone,338.0,1,C(C)(C)C1CCC(CC1)=O,carroll11,0,0,0,0
5-methyl-3-heptanone,316.0,1,CC(CC(CC)=O)CC,carroll11,0,0,0,0
cyclohexanecarboxaldehyde,314.0,1,C1(CCCCC1)C=O,carroll11,0,0,0,0
2-ethylhexanal,319.0,1,C(C)C(C=O)CCCC,carroll11,0,0,0,0
4-octanone,318.0,1,CCCC(CCCC)=O,carroll11,0,0,0,0
4-nonanone,335.0,1,CCCC(CCCCC)=O,carroll11,0,0,0,0
4-decanone,344.0,1,CCCC(CCCCCC)=O,carroll11,0,0,0,0
4-undecanone,365.0,1,CCCC(CCCCCCC)=O,carroll11,0,0,0,0
diisobutylketone,322.0,1,C(C(C)C)C(=O)CC(C)C,carroll11,0,0,0,0
cycloheptanone,329.0,1,C1(CCCCCC1)=O,carroll11,0,0,0,0
2-ethylcycloheptanone,344.0,1,C(C)C1C(CCCCC1)=O,carroll11,0,0,0,0
5-methylcyclooctanone,344.0,1,CC1CCCC(CCC1)=O,carroll11,0,0,0,0
2-methylcyclooctanone,344.0,1,CC1C(CCCCCC1)=O,carroll11,0,0,0,0
5-nonanone,333.0,1,CCCCC(CCCC)=O,carroll11,0,0,0,0
2-tert-butylcyclohexanone,345.0,1,C(C)(C)(C)C1C(CCCC1)=O,carroll11,0,0,0,0
"3,3,5,5-tetramethylcyclohexanone",346.0,1,CC1(CC(CC(C1)(C)C)=O)C,carroll11,0,0,0,0
6-undecanone,361.0,1,CCCCCC(CCCCC)=O,carroll11,0,0,0,0
dimethylcarbonate,287.0,1,COC(OC)=O,carroll11,0,0,0,0
diethylcarbonate,306.0,1,C(C)OC(OCC)=O,carroll11,0,0,0,0
dipropylcarbonate,328.0,1,C(CC)OC(OCCC)=O,carroll11,0,0,0,0
allylethylcarbonate,319.0,1,C(C=C)CCOC([O-])=O,carroll11,0,0,0,0
ethanol,285.0,1,C(C)O,carroll11,0,0,0,0
1-propanol,296.0,1,C(CC)O,carroll11,0,0,0,0
1-butanol,307.0,1,C(CCC)O,carroll11,0,0,0,0
1-pentanol,322.0,1,C(CCCC)O,carroll11,0,0,0,0
1-hexanol,332.0,1,C(CCCCC)O,carroll11,0,0,0,0
1-heptanol,343.0,1,C(CCCCCC)O,carroll11,0,0,0,0
1-nonanol,371.0,1,C(CCCCCCCC)O,carroll11,0,0,0,0
1-decanol,381.0,1,C(CCCCCCCCC)O,carroll11,0,0,0,0
1-dodecanol,400.0,1,C(CCCCCCCCCCC)O,carroll11,0,0,0,0
1-undecanol,388.0,1,C(CCCCCCCCCC)O,carroll11,0,0,0,0
2-propanol,285.0,1,CC(C)O,carroll11,0,0,0,0
2-butanol,297.0,1,CC(CC)O,carroll11,0,0,0,0
2-pentanol,307.0,1,CC(CCC)O,carroll11,0,0,0,0
2-hexanol,319.0,1,CC(CCCC)O,carroll11,0,0,0,0
2-heptanol,332.0,1,CC(CCCCC)O,carroll11,0,0,0,0
2-octanol,345.0,1,CC(CCCCCC)O,carroll11,0,0,0,0
2-nonanol,355.0,1,CC(CCCCCCC)O,carroll11,0,0,0,0
2-decanol,358.0,1,CC(CCCCCCCC)O,carroll11,0,0,0,0
2-undecanol,380.0,1,CC(CCCCCCCCC)O,carroll11,0,0,0,0
2-dodecanol,386.0,1,CC(CCCCCCCCCC)O,carroll11,0,0,0,0
3-pentanol,306.0,1,CCC(CC)O,carroll11,0,0,0,0
3-hexanol,318.0,1,CCC(CCC)O,carroll11,0,0,0,0
3-heptanol,328.0,1,CCC(CCCC)O,carroll11,0,0,0,0
3-nonanol,352.0,1,CCC(CCCCCC)O,carroll11,0,0,0,0
3-decanol,372.0,1,CCC(CCCCCCC)O,carroll11,0,0,0,0
3-octanol,341.0,1,CCC(CCCCC)O,carroll11,0,0,0,0
tert-butylalcohol,284.0,1,C(C)(C)(C)O,carroll11,0,0,0,0
2-methyl-2-butanol,294.0,1,CC(C)(CC)O,carroll11,0,0,0,0
allylalcohol,295.0,1,C(C=C)O,carroll11,0,0,0,0
2-methyl-1-propanol,301.0,1,CC(CO)C,carroll11,0,0,0,0
3-methyl-2-butanol,300.0,1,CC(C(C)O)C,carroll11,0,0,0,0
2-methyl-3-pentanol,319.0,1,CC(C)C(CC)O,carroll11,0,0,0,0
2-methyl-1-butanol,316.0,1,CC(CO)CC,carroll11,0,0,0,0
3-methyl-1-butanol,316.0,1,CC(CCO)C,carroll11,0,0,0,0
4-methyl-2-pentanol,314.0,1,CC(CC(C)O)C,carroll11,0,0,0,0
3-methyl-2-pentanol,314.0,1,CC(C(C)O)CC,carroll11,0,0,0,0
cyclopentanol,324.0,1,C1(CCCC1)O,carroll11,0,0,0,0
2-methyl-1-pentanol,324.0,1,CC(CO)CCC,carroll11,0,0,0,0
2-ethyl-1-butanol,330.0,1,C(C)C(CO)CC,carroll11,0,0,0,0
4-methyl-1-pentanol,324.0,1,CC(CCCO)C,carroll11,0,0,0,0
3-methyl-1-pentanol,331.0,1,CC(CCO)CC,carroll11,0,0,0,0
cyclohexanol,336.0,1,C1(CCCCC1)O,carroll11,0,0,0,0
cyclopentylmethanol,335.0,1,C1(CCCC1)CO,carroll11,0,0,0,0
cis-2-methylcyclohexanol,332.0,1,C[C@@H]1[C@@H](CCCC1)O,carroll11,0,0,0,0
trans-2-methylcyclohexanol,332.0,1,C[C@H]1[C@@H](CCCC1)O,carroll11,0,0,0,0
trans-4-methylcyclohexanol,343.0,1,C[C@@H]1CC[C@H](CC1)O,carroll11,0,0,0,0
2-ethyl-1-hexanol,347.0,1,C(C)C(CO)CCCC,carroll11,0,0,0,0
cycloheptanol,344.0,1,C1(CCCCCC1)O,carroll11,0,0,0,0