compound,flashpoint,pure substance,smiles,source,is_silicon,is_metallic,is_tin,is_acid
1-chloro-3-methylbenzene,325.15,1,CC1=CC(=CC=C1)Cl,pubchem,0,0,0,0
3-chloroaniline,397.15,1,C1=CC(=CC(=C1)Cl)N,pubchem,0,0,0,0
3-methylaniline,359.15,1,CC1=CC(=CC=C1)N,pubchem,0,0,0,0
"benzene-1,3-diamine",411.15,1,C1=CC(=CC(=C1)N)N,pubchem,0,0,0,0
1-chloro-2-(1-chloropropan-2-yloxy)propane,358.15,1,CC(CCl)OC(C)CCl,pubchem,0,0,0,0
1-methoxypropan-2-yl acetate,319.15,1,CC(COC)OC(=O)C,pubchem,0,0,0,0
"1,3,5-trimethylbenzene",323.15,1,CC1=CC(=CC(=C1)C)C,pubchem,0,0,0,0
"3,5-dimethylphenol",353.15,1,CC1=CC(=CC(=C1)O)C,pubchem,0,0,0,0
"3,5-dimethylaniline",366.15,1,CC1=CC(=CC(=C1)N)C,pubchem,0,0,0,0
"1,3,5-trichlorobenzene",380.15,1,C1=C(C=C(C=C1Cl)Cl)Cl,pubchem,0,0,0,0
"2,4,6-trimethylpyridine",331.15,1,CC1=CC(=NC(=C1)C)C,pubchem,0,0,0,0
"2,6-dimethylheptan-4-ol",347.15,1,CC(C)CC(CC(C)C)O,pubchem,0,0,0,0
"2,6-dimethylheptan-4-one",333.15,1,CC(C)CC(=O)CC(C)C,pubchem,0,0,0,0
4-methylpentan-2-yl acetate,318.15,1,CC(C)CC(C)OC(=O)C,pubchem,0,0,0,0
bromobenzene,324.15,1,C1=CC=C(C=C1)Br,pubchem,0,0,0,0
methylcyclohexane,269.15,1,CC1CCCCC1,pubchem,0,0,0,0
4-methylpyridine,330.15,1,CC1=CC=NC=C1,pubchem,0,0,0,0
chlorobenzene,297.15,1,C1=CC=C(C=C1)Cl,pubchem,0,0,0,0
cyclohexanamine,304.15,1,C1CCC(CC1)N,pubchem,0,0,0,0
cyclohexanol,341.15,1,C1CCC(CC1)O,pubchem,0,0,0,0
cyclohexanone,317.15,1,C1CCC(=O)CC1,pubchem,0,0,0,0
benzenethiol,326.15,1,C1=CC=C(C=C1)S,pubchem,0,0,0,0
3-methylpyridine,309.15,1,CC1=CN=CC=C1,pubchem,0,0,0,0
4-methylmorpholine,297.15,1,CN1CCOCC1,pubchem,0,0,0,0
2-methylpyridine,309.15,1,CC1=CC=CC=N1,pubchem,0,0,0,0
butyl 3-methylbutanoate,326.15,1,CCCCOC(=O)CC(C)C,pubchem,0,0,0,0
butyl butanoate,326.15,1,CCCCOC(=O)CCC,pubchem,0,0,0,0
dihexyl nonanedioate,477.15,1,CCCCCCOC(=O)CCCCCCCC(=O)OCCCCCC,pubchem,0,0,0,0
dibutyl decanedioate,451.15,1,CCCCOC(=O)CCCCCCCCC(=O)OCCCC,pubchem,0,0,0,0
1-ethenoxy-2-methylpropane,264.15,1,CC(C)COC=C,pubchem,0,0,0,0
"N',N'-dimethylpropane-1,3-diamine",289.15,1,CN(C)CCCN,pubchem,0,0,0,0
2-propan-2-yloxyethanol,306.15,1,CC(C)OCCO,pubchem,0,0,0,0
propyl acetate,287.15,1,CCCOC(=O)C,pubchem,0,0,0,0
propyl carbonochloridate,223.15,1,CCCOC(=O)Cl,pubchem,0,0,0,0
"1,3-dibromopropane",239.15,1,C(CBr)CBr,pubchem,0,0,0,0
1-bromobutane,291.15,1,CCCCBr,pubchem,0,0,0,0
pentane,224.15,1,CCCCC,pubchem,0,0,0,0
pent-1-ene,222.15,1,CCCC=C,pubchem,0,0,0,0
1-chlorobutane,266.15,1,CCCCCl,pubchem,0,0,0,0
1-bromo-3-chloropropane,330.15,1,C(CCl)CBr,pubchem,0,0,0,0
butan-1-amine,261.15,1,CCCCN,pubchem,0,0,0,0
butanenitrile,290.15,1,CCCC#N,pubchem,0,0,0,0
propanedinitrile,403.15,1,C(C#N)C#N,pubchem,0,0,0,0
butane-1-thiol,286.15,1,CCCCS,pubchem,0,0,0,0
"propane-1,3-dithiol",332.15,1,C(CS)CS,pubchem,0,0,0,0
2-(methylamino)ethanol,347.15,1,CNCCO,pubchem,0,0,0,0
2-methoxyethanol,315.15,1,COCCO,pubchem,0,0,0,0
dimethoxymethane,255.15,1,COCOC,pubchem,0,0,0,0
N-ethylethanamine,244.15,1,CCNCC,pubchem,0,0,0,0
ethyl formate,253.15,1,CCOC=O,pubchem,0,0,0,0
ethyl nitrite,238.15,1,CCON=O,pubchem,0,0,0,0
1H-pyrrole,312.15,1,C1=CNC=C1,pubchem,0,0,0,0
oxolane,259.15,1,C1CCOC1,pubchem,0,0,0,0
thiophene,272.15,1,C1=CSC=C1,pubchem,0,0,0,0
2-tert-butylperoxy-2-methylpropane,291.15,1,CC(C)(C)OOC(C)(C)C,pubchem,0,0,0,0
5-methylhexan-2-one,309.15,1,CC(C)CCC(=O)C,pubchem,0,0,0,0
"hexane-2,5-dione",352.15,1,CC(=O)CCC(=O)C,pubchem,0,0,0,0
"N,N,N',N'-tetramethylethane-1,2-diamine",283.15,1,CN(C)CCN(C)C,pubchem,0,0,0,0
2-methylpropyl acetate,290.15,1,CC(C)COC(=O)C,pubchem,0,0,0,0
acetyl ethaneperoxoate,318.15,1,CC(=O)OOC(=O)C,pubchem,0,0,0,0
N-[2-(octadecanoylamino)ethyl]octadecanamide,553.15,1,CCCCCCCCCCCCCCCCCC(=O)NCCNC(=O)CCCCCCCCCCCCCCCCC,pubchem,0,0,0,0
dihexyl hexanedioate,436.15,1,CCCCCCOC(=O)CCCCC(=O)OCCCCCC,pubchem,0,0,0,0
heptan-2-one,312.15,1,CCCCCC(=O)C,pubchem,0,0,0,0
2-methoxyethyl acetate,317.15,1,CC(=O)OCCOC,pubchem,0,0,0,0
hexane,250.15,1,CCCCCC,pubchem,0,0,0,0
"1,4-dichlorobutane",313.15,1,C(CCCl)CCl,pubchem,0,0,0,0
pentan-1-amine,280.15,1,CCCCCN,pubchem,0,0,0,0
pentanenitrile,314.15,1,CCCCC#N,pubchem,0,0,0,0
butanedinitrile,405.15,1,C(CC#N)C#N,pubchem,0,0,0,0
pentanal,285.15,1,CCCCC=O,pubchem,0,0,0,0
"butane-1,4-diol",392.15,1,C(CCO)CO,pubchem,0,0,0,0
"but-2-ene-1,4-diol",401.15,1,C(C=CCO)O,pubchem,0,0,0,0
"but-2-yne-1,4-diol",401.15,1,C(C#CCO)O,pubchem,0,0,0,0
pentane-1-thiol,291.15,1,CCCCCS,pubchem,0,0,0,0
N-methylbutan-1-amine,286.15,1,CCCCNC,pubchem,0,0,0,0
N-butylidenehydroxylamine,331.15,1,CCCC=NO,pubchem,0,0,0,0
"1,2-dimethoxyethane",273.15,1,COCCOC,pubchem,0,0,0,0
2-(ethylamino)ethanol,344.15,1,CCNCCO,pubchem,0,0,0,0
propyl formate,270.15,1,CCCOC=O,pubchem,0,0,0,0
1-chloro-2-ethenoxyethane,289.15,1,C=COCCCl,pubchem,0,0,0,0
2-ethoxyethanol,314.15,1,CCOCCO,pubchem,0,0,0,0
cyclohexane,253.15,1,C1CCCCC1,pubchem,0,0,0,0
cyclohexene,261.15,1,C1CCC=CC1,pubchem,0,0,0,0
"3,4-dihydro-2H-pyran",255.15,1,C1CC=COC1,pubchem,0,0,0,0
"1,3,5-trioxane",318.15,1,C1OCOCO1,pubchem,0,0,0,0
piperidine,276.15,1,C1CCNCC1,pubchem,0,0,0,0
morpholine,311.15,1,C1COCCN1,pubchem,0,0,0,0
2-methyl-N-(2-methylpropyl)propan-1-amine,302.15,1,CC(C)CNCC(C)C,pubchem,0,0,0,0
1-(2-hydroxypropylamino)propan-2-ol,399.15,1,CC(CNCC(C)O)O,pubchem,0,0,0,0
1-(2-hydroxypropoxy)propan-2-ol,411.15,1,CC(COCC(C)O)O,pubchem,0,0,0,0
octan-2-one,325.15,1,CCCCCCC(=O)C,pubchem,0,0,0,0
2-ethoxyethyl acetate,330.15,1,CCOCCOC(=O)C,pubchem,0,0,0,0
2-[2-(2-acetyloxyethoxy)ethoxy]ethyl acetate,447.15,1,CC(=O)OCCOCCOCCOC(=O)C,pubchem,0,0,0,0
hexan-1-amine,302.15,1,CCCCCCN,pubchem,0,0,0,0
hexan-1-ol,336.15,1,CCCCCCO,pubchem,0,0,0,0
"pentane-1,5-diol",402.15,1,C(CCO)CCO,pubchem,0,0,0,0
hexane-1-thiol,293.15,1,CCCCCCS,pubchem,0,0,0,0
1-ethenoxybutane,264.15,1,CCCCOC=C,pubchem,0,0,0,0
3-ethoxypropan-1-ol,327.15,1,CCOCCCO,pubchem,0,0,0,0
1-isocyanatobutane,292.15,1,CCCCN=C=O,pubchem,0,0,0,0
"N'-(2-aminoethyl)ethane-1,2-diamine",375.15,1,C(CNCCN)N,pubchem,0,0,0,0
2-(2-aminoethylamino)ethanol,375.15,1,C(CNCCO)N,pubchem,0,0,0,0
2-(2-hydroxyethylamino)ethanol,410.15,1,C(CO)NCCO,pubchem,0,0,0,0
1-propoxypropane,294.15,1,CCCOCCC,pubchem,0,0,0,0
1-chloro-2-(2-chloroethoxy)ethane,328.15,1,C(CCl)OCCCl,pubchem,0,0,0,0
2-(2-hydroxyethoxy)ethanol,416.15,1,C(COCCO)O,pubchem,0,0,0,0
azepane,310.15,1,C1CCCNCC1,pubchem,0,0,0,0
2-acetyloxyethyl acetate,369.15,1,CC(=O)OCCOC(=O)C,pubchem,0,0,0,0
octanoyl chloride,354.15,1,CCCCCCCC(=O)Cl,pubchem,0,0,0,0
oct-1-ene,294.15,1,CCCCCCC=C,pubchem,0,0,0,0
hexanedinitrile,366.15,1,C(CCC#N)CC#N,pubchem,0,0,0,0
heptan-1-ol,350.15,1,CCCCCCCO,pubchem,0,0,0,0
heptanal,308.15,1,CCCCCCC=O,pubchem,0,0,0,0
2-butoxyethanol,334.15,1,CCCCOCCO,pubchem,0,0,0,0
2-(2-methoxyethoxy)ethanol,366.15,1,COCCOCCO,pubchem,0,0,0,0
nonane,304.15,1,CCCCCCCCC,pubchem,0,0,0,0
1-chlorooctane,343.15,1,CCCCCCCCCl,pubchem,0,0,0,0
octane-1-thiol,319.15,1,CCCCCCCCS,pubchem,0,0,0,0
2-(2-ethoxyethoxy)ethanol,369.15,1,CCOCCOCCO,pubchem,0,0,0,0
1-chloro-2-(2-chloroethoxymethoxy)ethane,383.15,1,C(CCl)OCOCCCl,pubchem,0,0,0,0
N-butylbutan-1-amine,325.15,1,CCCCNCCCC,pubchem,0,0,0,0
3-(2-cyanoethylamino)propanenitrile,383.15,1,C(CNCCC#N)C#N,pubchem,0,0,0,0
1-methoxy-2-(2-methoxyethoxy)ethane,340.15,1,COCCOCCOC,pubchem,0,0,0,0
hexadecyl(trimethyl)azanium;chloride,294.15,1,CCCCCCCCCCCCCCCC[N+](C)(C)C.[Cl-],pubchem,0,0,0,0
heptyl acetate,341.15,1,CCCCCCCOC(=O)C,pubchem,0,0,0,0
2-butoxyethyl acetate,344.15,1,CCCCOCCOC(=O)C,pubchem,0,0,0,0
undecan-2-one,362.15,1,CCCCCCCCCC(=O)C,pubchem,0,0,0,0
2-(2-ethoxyethoxy)ethyl acetate,383.15,1,CCOCCOCCOC(=O)C,pubchem,0,0,0,0
2-hexoxyethanol,364.15,1,CCCCCCOCCO,pubchem,0,0,0,0
"1,2-bis(2-chloroethoxy)ethane",523.15,1,C(COCCCl)OCCCl,pubchem,0,0,0,0
2-[2-(2-hydroxyethoxy)ethoxy]ethanol,439.15,1,C(COCCOCCO)O,pubchem,0,0,0,0
decan-1-ol,355.15,1,CCCCCCCCCCO,pubchem,0,0,0,0
decanal,358.15,1,CCCCCCCCCC=O,pubchem,0,0,0,0
2-(2-butoxyethoxy)ethanol,351.15,1,CCCCOCCOCCO,pubchem,0,0,0,0
1-ethoxy-2-(2-ethoxyethoxy)ethane,327.15,1,CCOCCOCCOCC,pubchem,0,0,0,0
dodecane,347.15,1,CCCCCCCCCCCC,pubchem,0,0,0,0
dodec-1-ene,373.15,1,CCCCCCCCCCC=C,pubchem,0,0,0,0
undecan-1-ol,366.15,1,CCCCCCCCCCCO,pubchem,0,0,0,0
1-(2-butoxyethoxy)butane,358.15,1,CCCCOCCOCCCC,pubchem,0,0,0,0
1-methoxy-2-[2-(2-methoxyethoxy)ethoxy]ethane,384.15,1,COCCOCCOCCOC,pubchem,0,0,0,0
2-[2-(2-ethoxyethoxy)ethoxy]ethanol,408.15,1,CCOCCOCCOCCO,pubchem,0,0,0,0
1-chlorododecane,386.15,1,CCCCCCCCCCCCCl,pubchem,0,0,0,0
dodecan-1-ol,400.15,1,CCCCCCCCCCCCO,pubchem,0,0,0,0
dodecane-1-thiol,361.15,1,CCCCCCCCCCCCS,pubchem,0,0,0,0
2-(2-butoxyethoxy)ethyl thiocyanate,325.15,1,CCCCOCCOCCSC#N,pubchem,0,0,0,0
"N'-[2-[2-(2-aminoethylamino)ethylamino]ethyl]ethane-1,2-diamine",436.15,1,C(CNCCNCCNCCN)N,pubchem,0,0,0,0
2-(2-hexoxyethoxy)ethanol,414.15,1,CCCCCCOCCOCCO,pubchem,0,0,0,0
2-[2-[2-(2-hydroxyethoxy)ethoxy]ethoxy]ethanol,455.15,1,C(COCCOCCOCCO)O,pubchem,0,0,0,0
methyl octadecanoate,426.15,1,CCCCCCCCCCCCCCCCCC(=O)OC,pubchem,0,0,0,0
tridecan-1-ol,394.15,1,CCCCCCCCCCCCCO,pubchem,0,0,0,0
tetradecan-1-ol,414.15,1,CCCCCCCCCCCCCCO,pubchem,0,0,0,0
1-[2-(2-butoxyethoxy)ethoxy]butane,391.15,1,CCCCOCCOCCOCCCC,pubchem,0,0,0,0
octadecan-1-ol,473.15,1,CCCCCCCCCCCCCCCCCCO,pubchem,0,0,0,0
icosane,373.15,1,CCCCCCCCCCCCCCCCCCCC,pubchem,0,0,0,0
"4-(2-ethylhexyl)-4-azatricyclo[5.2.1.02,6]dec-8-ene-3,5-dione",450.15,1,CCCCC(CC)CN1C(=O)C2C3CC(C2C1=O)C=C3,pubchem,0,0,0,0
prop-1-ene,165.15,1,CC=C,pubchem,0,0,0,0
methoxymethane,269.15,1,COC,pubchem,0,0,0,0
2-methylprop-1-ene,197.15,1,CC(=C)C,pubchem,0,0,0,0
2-methylbut-3-en-2-ol,286.15,1,CC(C)(C=C)O,pubchem,0,0,0,0
2-methylbut-3-yn-2-ol,298.15,1,CC(C)(C#C)O,pubchem,0,0,0,0
"(1,7,7-trimethyl-2-bicyclo[2.2.1]heptanyl) 2-thiocyanatoacetate",355.15,1,CC1(C2CCC1(C(C2)OC(=O)CSC#N)C)C,pubchem,0,0,0,0
"2,2,2-trichloro-1,1-bis(4-chlorophenyl)ethanol",297.15,1,C1=CC(=CC=C1C(C2=CC=C(C=C2)Cl)(C(Cl)(Cl)Cl)O)Cl,pubchem,0,0,0,0
"2,2-bis(hydroxymethyl)propane-1,3-diol",513.15,1,C(C(CO)(CO)CO)O,pubchem,0,0,0,0
triphenyl phosphate,493.15,1,C1=CC=C(C=C1)OP(=O)(OC2=CC=CC=C2)OC3=CC=CC=C3,pubchem,0,0,0,0
"3,7-dimethylocta-1,6-dien-3-yl acetate",367.15,1,CC(=CCCC(C)(C=C)OC(=O)C)C,pubchem,0,0,0,0
tris(2-chloroethyl) phosphate,505.15,1,C(CCl)OP(=O)(OCCCl)OCCCl,pubchem,0,0,0,0
"3,3,5-trimethylcyclohexan-1-ol",347.15,1,CC1CC(CC(C1)(C)C)O,pubchem,0,0,0,0
tripropan-2-yl phosphite,347.15,1,CC(C)OP(OC(C)C)OC(C)C,pubchem,0,0,0,0
"methyl 2,2-dichloroacetate",353.15,1,COC(=O)C(Cl)Cl,pubchem,0,0,0,0
"4,5,6,7-tetrachloro-2-benzofuran-1,3-dione",635.15,1,C12=C(C(=C(C(=C1Cl)Cl)Cl)Cl)C(=O)OC2=O,pubchem,0,0,0,0
1-chloro-4-[1-(4-chlorophenyl)-2-nitrobutyl]benzene,423.15,1,CCC(C(C1=CC=C(C=C1)Cl)C2=CC=C(C=C2)Cl)[N+](=O)[O-],pubchem,0,0,0,0
"2-aminoanthracene-9,10-dione",556.15,1,C1=CC=C2C(=C1)C(=O)C3=C(C2=O)C=C(C=C3)N,pubchem,0,0,0,0
"bis(2-ethylhexyl) benzene-1,2-dicarboxylate",480.15,1,CCCCC(CC)COC(=O)C1=CC=CC=C1C(=O)OCC(CC)CCCC,pubchem,0,0,0,0
"bis(2-methoxyethyl) benzene-1,2-dicarboxylate",483.15,1,COCCOC(=O)C1=CC=CC=C1C(=O)OCCOC,pubchem,0,0,0,0
"bis(2-butoxyethyl) benzene-1,2-dicarboxylate",680.15,1,CCCCOCCOC(=O)C1=CC=CC=C1C(=O)OCCOCCCC,pubchem,0,0,0,0
"dioctyl benzene-1,2-dicarboxylate",377.15,1,CCCCCCCCOC(=O)C1=CC=CC=C1C(=O)OCCCCCCCC,pubchem,0,0,0,0
"1,3-dichloro-5,5-dimethylimidazolidine-2,4-dione",447.15,1,CC1(C(=O)N(C(=O)N1Cl)Cl)C,pubchem,0,0,0,0
benzyl 2-hydroxybenzoate,453.15,1,C1=CC=C(C=C1)COC(=O)C2=CC=CC=C2O,pubchem,0,0,0,0
"1,3-dichloro-2-methylbenzene",355.15,1,CC1=C(C=CC=C1Cl)Cl,pubchem,0,0,0,0
"1,2,3,4,5,6-hexachlorobenzene",515.15,1,C1(=C(C(=C(C(=C1Cl)Cl)Cl)Cl)Cl)Cl,pubchem,0,0,0,0
"ditridecyl benzene-1,2-dicarboxylate",511.15,1,CCCCCCCCCCCCCOC(=O)C1=CC=CC=C1C(=O)OCCCCCCCCCCCCC,pubchem,0,0,0,0
"2-O-decyl 1-O-octyl benzene-1,2-dicarboxylate",508.15,1,CCCCCCCCCCOC(=O)C1=CC=CC=C1C(=O)OCCCCCCCC,pubchem,0,0,0,0
4-methyl-3-nitroaniline,430.15,1,CC1=C(C=C(C=C1)N)[N+](=O)[O-],pubchem,0,0,0,0
"1,2,3,4-tetrahydronaphthalene",353.15,1,C1CCC2=CC=CC=C2C1,pubchem,0,0,0,0
4-(4-amino-3-methoxyphenyl)-2-methoxyaniline,479.15,1,COC1=C(C=CC(=C1)C2=CC(=C(C=C2)N)OC)N,pubchem,0,0,0,0
4-(4-amino-3-methylphenyl)-2-methylaniline,517.15,1,CC1=C(C=CC(=C1)C2=CC(=C(C=C2)N)C)N,pubchem,0,0,0,0
anthracene,394.15,1,C1=CC=C2C=C3C=CC=CC3=CC2=C1,pubchem,0,0,0,0
2-benzyl-4-chlorophenol,461.15,1,C1=CC=C(C=C1)CC2=C(C=CC(=C2)Cl)O,pubchem,0,0,0,0
2-(2-benzoyloxyethoxy)ethyl benzoate,505.15,1,C1=CC=C(C=C1)C(=O)OCCOCCOC(=O)C2=CC=CC=C2,pubchem,0,0,0,0
"dimethyl benzene-1,4-dicarboxylate",426.15,1,COC(=O)C1=CC=C(C=C1)C(=O)OC,pubchem,0,0,0,0
"2-(1,3-benzothiazol-2-yldisulfanyl)-1,3-benzothiazole",543.15,1,C1=CC=C2C(=C1)N=C(S2)SSC3=NC4=CC=CC=C4S3,pubchem,0,0,0,0
"2,4-dichlorophenol",387.15,1,C1=CC(=C(C=C1Cl)Cl)O,pubchem,0,0,0,0
cyclopentanone,303.15,1,C1CCC(=O)C1,pubchem,0,0,0,0
2-tert-butyl-4-methoxyphenol,429.15,1,CC(C)(C)C1=C(C=CC(=C1)OC)O,pubchem,0,0,0,0
"1-methyl-2,4-dinitrobenzene",480.15,1,CC1=C(C=C(C=C1)[N+](=O)[O-])[N+](=O)[O-],pubchem,0,0,0,0
3-ethoxy-4-hydroxybenzaldehyde,418.15,1,CCOC1=C(C=CC(=C1)C=O)O,pubchem,0,0,0,0
"N,N-diethylethanamine",266.15,1,CCN(CC)CC,pubchem,0,0,0,0
trimethyl phosphite,301.15,1,COP(OC)OC,pubchem,0,0,0,0
"bicyclo[2.2.1]hepta-2,5-diene",252.15,1,C1C2C=CC1C=C2,pubchem,0,0,0,0
1-chloro-3-nitrobenzene,400.15,1,C1=CC(=CC(=C1)Cl)[N+](=O)[O-],pubchem,0,0,0,0
2-chloro-4-nitroaniline,478.15,1,C1=CC(=C(C=C1[N+](=O)[O-])Cl)N,pubchem,0,0,0,0
"dimethyl benzene-1,2-dicarboxylate",419.15,1,COC(=O)C1=CC=CC=C1C(=O)OC,pubchem,0,0,0,0
"bis(prop-2-enyl) benzene-1,2-dicarboxylate",383.15,1,C=CCOC(=O)C1=CC=CC=C1C(=O)OCC=C,pubchem,0,0,0,0
"dipentyl benzene-1,2-dicarboxylate",454.15,1,CCCCCOC(=O)C1=CC=CC=C1C(=O)OCCCCC,pubchem,0,0,0,0
methyl 2-aminobenzoate,377.15,1,COC(=O)C1=CC=CC=C1N,pubchem,0,0,0,0
naphthalen-1-amine,430.15,1,C1=CC=C2C(=C1)C=CC=C2N,pubchem,0,0,0,0
"1,2-diethylbenzene",330.15,1,CCC1=CC=CC=C1CC,pubchem,0,0,0,0
naphthalen-2-ol,426.15,1,C1=CC=C2C=C(C=CC2=C1)O,pubchem,0,0,0,0
butan-2-ylbenzene,325.15,1,CCC(C)C1=CC=CC=C1,pubchem,0,0,0,0
"dipropyl pyridine-2,5-dicarboxylate",366.15,1,CCCOC(=O)C1=CN=C(C=C1)C(=O)OCCC,pubchem,0,0,0,0
butyl benzoate,380.15,1,CCCCOC(=O)C1=CC=CC=C1,pubchem,0,0,0,0
methyl 2-cyanoprop-2-enoate,352.15,1,COC(=O)C(=C)C#N,pubchem,0,0,0,0
"zinc;N,N-dimethylcarbamodithioate",366.15,1,CN(C)C(=S)[S-].CN(C)C(=S)[S-].[Zn+2],pubchem,0,1,0,0
2-methylbutan-1-ol,323.15,1,CCC(C)CO,pubchem,0,0,0,0
"2,4-di(nonyl)phenol",400.15,1,CCCCCCCCCC1=CC(=C(C=C1)O)CCCCCCCCC,pubchem,0,0,0,0
butyl 2-hydroxypropanoate,344.15,1,CCCCOC(=O)C(C)O,pubchem,0,0,0,0
2-[ethyl(2-hydroxyethyl)amino]ethanol,371.15,1,CCN(CCO)CCO,pubchem,0,0,0,0
trisodium;2-[2-[bis(carboxylatomethyl)amino]ethyl-(2-hydroxyethyl)amino]acetate,373.15,1,C(CN(CC(=O)[O-])CC(=O)[O-])N(CCO)CC(=O)[O-].[Na+].[Na+].[Na+],pubchem,0,1,0,0
tris(2-chloroethyl) phosphite,411.15,1,C(CCl)OP(OCCCl)OCCCl,pubchem,0,0,0,0
benzyl acetate,364.15,1,CC(=O)OCC1=CC=CC=C1,pubchem,0,0,0,0
2-phenylacetonitrile,375.15,1,C1=CC=C(C=C1)CC#N,pubchem,0,0,0,0
2-piperazin-1-ylethanamine,366.15,1,C1CN(CCN1)CCN,pubchem,0,0,0,0
N-[4-(2-chloroacetyl)phenyl]acetamide,383.15,1,CC(=O)NC1=CC=C(C=C1)C(=O)CCl,pubchem,0,0,0,0
1-methoxy-4-prop-2-enylbenzene,354.15,1,COC1=CC=C(C=C1)CC=C,pubchem,0,0,0,0
5-ethenyl-2-methylpyridine,347.15,1,CC1=NC=C(C=C1)C=C,pubchem,0,0,0,0
ethyl prop-2-enoate,282.15,1,CCOC(=O)C=C,pubchem,0,0,0,0
dibutyl butanedioate,408.15,1,CCCCOC(=O)CCC(=O)OCCCC,pubchem,0,0,0,0
"3,7-dimethylocta-2,6-dienal",375.15,1,CC(=CCCC(=CC=O)C)C,pubchem,0,0,0,0
butyl prop-2-enoate,322.15,1,CCCCOC(=O)C=C,pubchem,0,0,0,0
"2,4,4-trimethylpentane-2-thiol",319.15,1,CC(C)(C)CC(C)(C)S,pubchem,0,0,0,0
butanoyl chloride,295.15,1,CCCC(=O)Cl,pubchem,0,0,0,0
ethyl acetate,269.15,1,CCOC(=O)C,pubchem,0,0,0,0
4-methylpent-3-en-2-one,296.15,1,CC(=CC(=O)C)C,pubchem,0,0,0,0
ethyl 3-oxobutanoate,330.15,1,CCOC(=O)CC(=O)C,pubchem,0,0,0,0
aniline;hydrochloride,466.15,1,C1=CC=C(C=C1)N.Cl,pubchem,0,0,0,0
hexyl 2-methylprop-2-enoate,355.15,1,CCCCCCOC(=O)C(=C)C,pubchem,0,0,0,0
N-(2-hydroxyethyl)acetamide,450.15,1,CC(=O)NCCO,pubchem,0,0,0,0
"1,3-dichloropropane",294.15,1,C(CCl)CCl,pubchem,0,0,0,0
cyclopentene,239.15,1,C1CC=CC1,pubchem,0,0,0,0
oxane,253.15,1,C1CCOCC1,pubchem,0,0,0,0
heptane,269.15,1,CCCCCCC,pubchem,0,0,0,0
N-propylpropan-1-amine,290.15,1,CCCNCCC,pubchem,0,0,0,0
hexyl acetate,310.15,1,CCCCCCOC(=O)C,pubchem,0,0,0,0
1-butoxybutane,298.15,1,CCCCOCCCC,pubchem,0,0,0,0
nonan-1-ol,347.15,1,CCCCCCCCCO,pubchem,0,0,0,0
decane-1-thiol,371.15,1,CCCCCCCCCCS,pubchem,0,0,0,0
N-hexylhexan-1-amine,368.15,1,CCCCCCNCCCCCC,pubchem,0,0,0,0
2-[2-(2-butoxyethoxy)ethoxy]ethanol,416.15,1,CCCCOCCOCCOCCO,pubchem,0,0,0,0
hexadecan-1-amine,414.15,1,CCCCCCCCCCCCCCCCN,pubchem,0,0,0,0
"2,2,4-trimethylpentane-1,3-diol",386.15,1,CC(C)C(C(C)(C)CO)O,pubchem,0,0,0,0
"2,2,4-trimethyl-1H-quinoline",374.15,1,CC1=CC(NC2=CC=CC=C12)(C)C,pubchem,0,0,0,0
tris(butylsulfanyl)phosphane,419.15,1,CCCCSP(SCCCC)SCCCC,pubchem,0,0,0,0
4-methoxyphenol,405.15,1,COC1=CC=C(C=C1)O,pubchem,0,0,0,0
"1,4-dimethoxybenzene",361.15,1,COC1=CC=C(C=C1)OC,pubchem,0,0,0,0
aziridine,262.15,1,C1CN1,pubchem,0,0,0,0
4-ethoxyaniline,389.15,1,CCOC1=CC=C(C=C1)N,pubchem,0,0,0,0
3-aminopropan-1-ol,352.15,1,C(CN)CO,pubchem,0,0,0,0
fluoranthene,471.15,1,C1=CC=C2C(=C1)C3=CC=CC4=C3C2=CC=C4,pubchem,0,0,0,0
acenaphthylene,395.15,1,C1=CC2=C3C(=C1)C=CC3=CC=C2,pubchem,0,0,0,0
1-benzofuran,329.15,1,C1=CC=C2C(=C1)C=CO2,pubchem,0,0,0,0
7-oxabicyclo[4.1.0]heptane,354.15,1,C1CCC2C(C1)O2,pubchem,0,0,0,0
"1H-1,2,4-triazole",443.15,1,C1=NC=NN1,pubchem,0,0,0,0
cycloheptane,279.15,1,C1CCCCCC1,pubchem,0,0,0,0
bis(2-ethylhexyl) hydrogen phosphate,469.15,1,CCCCC(CC)COP(=O)(O)OCC(CC)CCCC,pubchem,0,0,0,0
N-methyl-1-phenylpropan-2-amine;hydrochloride,282.15,1,CC(CC1=CC=CC=C1)NC.Cl,pubchem,0,0,0,0
tris(2-ethylhexyl) phosphite,444.15,1,CCCCC(CC)COP(OCC(CC)CCCC)OCC(CC)CCCC,pubchem,0,0,0,0
"1,2-dichloro-4-(trifluoromethyl)benzene",338.15,1,C1=CC(=C(C=C1C(F)(F)F)Cl)Cl,pubchem,0,0,0,0
methyl trifluoromethanesulfonate,311.15,1,COS(=O)(=O)C(F)(F)F,pubchem,0,0,0,0
2-fluoroaniline,333.15,1,C1=CC=C(C(=C1)N)F,pubchem,0,0,0,0
1-fluoro-4-methylbenzene,314.15,1,CC1=CC=C(C=C1)F,pubchem,0,0,0,0
1-fluoro-3-methylbenzene,282.15,1,CC1=CC(=CC=C1)F,pubchem,0,0,0,0
ethylsulfanylethane,263.15,1,CCSCC,pubchem,0,0,0,0
"2,4-difluoroaniline",336.15,1,C1=CC(=C(C=C1F)F)N,pubchem,0,0,0,0
4-fluoroaniline,347.15,1,C1=CC(=CC=C1N)F,pubchem,0,0,0,0
2-fluoroethanol,304.15,1,C(CF)O,pubchem,0,0,0,0
1-nitro-2-(trifluoromethyl)benzene,369.15,1,C1=CC=C(C(=C1)C(F)(F)F)[N+](=O)[O-],pubchem,0,0,0,0
2-fluorobenzoyl chloride,355.15,1,C1=CC=C(C(=C1)C(=O)Cl)F,pubchem,0,0,0,0
6-methylhept-5-en-2-one,330.15,1,CC(=CCCC(=O)C)C,pubchem,0,0,0,0
cyanamide,414.15,1,C(#N)N,pubchem,0,0,0,0
1-bromo-4-fluorobenzene,333.15,1,C1=CC(=CC=C1F)Br,pubchem,0,0,0,0
fluorobenzene,258.15,1,C1=CC=C(C=C1)F,pubchem,0,0,0,0
pyridin-3-amine,463.15,1,C1=CC(=CN=C1)N,pubchem,0,0,0,0
pentyl nitrite,283.15,1,CCCCCON=O,pubchem,0,0,0,0
"3,3-dimethylbutan-2-ol",351.15,1,CC(C(C)(C)C)O,pubchem,0,0,0,0
"(1S,2R,4R)-1,7,7-trimethylbicyclo[2.2.1]heptan-2-ol",339.15,1,CC1(C2CCC1(C(C2)O)C)C,pubchem,0,0,0,0
"2,6,6-trimethylbicyclo[3.1.1]heptane",313.15,1,CC1CCC2CC1C2(C)C,pubchem,0,0,0,0
3-methyl-2-pent-2-enylcyclopent-2-en-1-one,380.15,1,CCC=CCC1=C(CCC1=O)C,pubchem,0,0,0,0
"InChI=1S/C4H4O2/c5-4-2-1-3-6-4/h1-2H,3H2",374.15,1,C1C=CC(=O)O1,pubchem,0,0,0,0
2-methyl-5-propan-2-ylphenol,373.15,1,CC1=C(C=C(C=C1)C(C)C)O,pubchem,0,0,0,0
benzyl carbonochloridate,381.15,1,C1=CC=C(C=C1)COC(=O)Cl,pubchem,0,0,0,0
oxepan-2-one,400.15,1,C1CCC(=O)OCC1,pubchem,0,0,0,0
nonan-5-one,333.15,1,CCCCC(=O)CCCC,pubchem,0,0,0,0
2-(fluoromethyl)oxirane,277.15,1,C1C(O1)CF,pubchem,0,0,0,0
but-2-yne,253.15,1,CC#CC,pubchem,0,0,0,0
oxetane,245.15,1,C1COC1,pubchem,0,0,0,0
"2,6-dimethylhepta-2,5-dien-4-one",358.15,1,CC(=CC(=O)C=C(C)C)C,pubchem,0,0,0,0
pyridin-2-amine,365.15,1,C1=CC=NC(=C1)N,pubchem,0,0,0,0
"propane-1,3-diol",447.15,1,C(CO)CO,pubchem,0,0,0,0
"1,3-dioxane",275.15,1,C1COCOC1,pubchem,0,0,0,0
1-chloro-2-(2-chloroethylsulfanyl)ethane,378.15,1,C(CCl)SCCCl,pubchem,0,0,0,0
acetyl bromide,348.15,1,CC(=O)Br,pubchem,0,0,0,0