compound,flashpoint,pure substance,smiles,source,is_silicon,is_metallic,is_tin,is_acid
"Benzene, 2,4-dichloro-1-methyl-",352.55,1,Cc1ccc(Cl)cc1Cl,le15,0,0,0,0
"Toluene, 3,4-dichloro- (8CI)",359.15,1,Cc1ccc(Cl)c(Cl)c1,le15,0,0,0,0
"Toluene, alpha,alpha-dichloro- (8CI)",361.15,1,ClC(Cl)c1ccccc1,le15,0,0,0,0
"Benzene, 1-chloro-4-(chloromethyl)-",360.45,1,ClCc1ccc(Cl)cc1,le15,0,0,0,0
"1,3-dichloro-2-methylbenzene",355.95,1,Cc1c(Cl)cccc1Cl,le15,0,0,0,0
1-chloro-2-(chloromethyl)benzene,355.15,1,ClCc1ccccc1Cl,le15,0,0,0,0
1-chloro-3-(chloromethyl)benzene,371.15,1,ClCc1cccc(Cl)c1,le15,0,0,0,0
"1,3-dichloro-5-methylbenzene",352.35,1,Cc1cc(Cl)cc(Cl)c1,le15,0,0,0,0
"1,2-dichloro-3-methylbenzene",356.15,1,Cc1cccc(Cl)c1Cl,le15,0,0,0,0
"1,4-dichloro-2-methylbenzene",352.55,1,Cc1cc(Cl)ccc1Cl,le15,0,0,0,0
"o-Toluidine, alpha,alpha,alpha-trifluoro- (8CI)",339.15,1,Nc1ccccc1C(F)(F)F,le15,0,0,0,0
"m-Toluidine, alpha,alpha,alpha-trifluoro-",358.15,1,Nc1cccc(C(F)(F)F)c1,le15,0,0,0,0
"2(1H)-Quinolinone, 4-hydroxy-",410.65,1,O=c1cc(O)c2ccccc2[nH]1,le15,0,0,0,0
"2-methylisoindole-1,3-dione",390.55,1,CN1C(=O)c2ccccc2C1=O,le15,0,0,0,0
Methyl 4-cyanobenzoate,404.35,1,COC(=O)c1ccc(C#N)cc1,le15,0,0,0,0
8-Hydroxyquinoline-N-oxide,412.15,1,[O-][n+]1cccc2cccc(O)c21,le15,0,0,0,0
4-phenoxybutanenitrile,394.65,1,N#CCCCOc1ccccc1,le15,0,0,0,0
"Acetamide, N-phenyl-N-vinyl-",386.05,1,C=CN(C(C)=O)c1ccccc1,le15,0,0,0,0
"1,2-Dihydro-3,3-dimethyl-2-oxo-3H-indole",445.75,1,CC1(C)C(=O)Nc2ccccc21,le15,0,0,0,0
3-phenylpiperidine,388.63800000000003,1,c1ccc(C2CCCNC2)cc1,le15,0,0,0,0
1-phenylpiperidine,379.25,1,c1ccc(N2CCCCC2)cc1,le15,0,0,0,0
4-phenylpiperidine,386.12,1,c1ccc(C2CCNCC2)cc1,le15,0,0,0,0
"Ethanol, 2,2'-(butylimino)bis-",399.85,1,CCCCN(CCO)CCO,le15,0,0,0,0
"Ethanol, 2-(2-(diethylamino)ethoxy)-",368.95,1,CCN(CC)CCOCCO,le15,0,0,0,0
"Ethanol, 2,2'-(tert-butylimino)di- (6CI,7CI,8CI)",391.15,1,CC(C)(C)N(CCO)CCO,le15,0,0,0,0
"2,2-diethoxy-N,N-dimethylethanamine",318.15,1,CCOC(CN(C)C)OCC,le15,0,0,0,0
"4,4-diethoxybutan-1-amine",335.95,1,CCOC(CCCN)OCC,le15,0,0,0,0
1-(2-hydroxybutylamino)butan-2-ol,384.75,1,CCC(O)CNCC(O)CC,le15,0,0,0,0
"Carbamothioic acid, diethyl-, S-ethyl ester (9CI)",357.35,1,CCSC(=O)N(CC)CC,le15,0,0,0,1
"2-Propanone, 1,1,1-trichloro-",337.15,1,CC(=O)C(Cl)(Cl)Cl,le15,0,0,0,0
"1,1,3-trichloropropan-2-one",352.15,1,O=C(CCl)C(Cl)Cl,le15,0,0,0,0
2-(trichloromethyl)oxirane,337.45,1,ClC(Cl)(Cl)C1CO1,le15,0,0,0,0
"Propionaldehyde, 2,2,3-trichloro-",330.65,1,O=CC(Cl)(Cl)CCl,le15,0,0,0,0
"Silanamine, 1,1,1-trimethyl-N-(trimethylsilyl)-",303.15,1,C[Si](C)(C)N[Si](C)(C)C,le15,1,1,0,0
"1,1,3-trichlorobutane",344.95,1,CC(Cl)CC(Cl)Cl,le15,0,0,0,0
"1,2,3-trichloro-2-methylpropane",351.55,1,CC(Cl)(CCl)CCl,le15,0,0,0,0
"Silane, trichlorovinyl- (8CI)",283.75,1,[SiH3]C(Cl)=C(Cl)Cl,le15,1,1,0,0
"1H-Pyrazole, 3-chloro-5-methyl-4-nitro-",448.45,1,Cc1[nH]nc(Cl)c1[N+](=O)[O-],le15,0,0,0,0
"Benzenamine, 3,4-dichloro-",439.15,1,Nc1ccc(Cl)c(Cl)c1,le15,0,0,0,0
"Benzenamine, 2,5-dichloro-",412.15,1,Nc1cc(Cl)ccc1Cl,le15,0,0,0,0
"2,3-dichloroaniline",388.15,1,Nc1cccc(Cl)c1Cl,le15,0,0,0,0
"Benzenamine, 3,5-dichloro-",406.15,1,Nc1cc(Cl)cc(Cl)c1,le15,0,0,0,0
"Benzenamine, 2,4-dichloro-",373.35,1,Nc1ccc(Cl)cc1Cl,le15,0,0,0,0
5-Bromopentanenitrile,372.65,1,N#CCCCCBr,le15,0,0,0,0
2-(trifluoromethyl)phenol,338.15,1,Oc1ccccc1C(F)(F)F,le15,0,0,0,0
trifluoromethoxybenzene,285.35,1,FC(F)(F)Oc1ccccc1,le15,0,0,0,0
3-(trifluoromethyl)phenol,347.05,1,Oc1cccc(C(F)(F)F)c1,le15,0,0,0,0
"alpha,alpha,alpha-Trifluoro-p-cresol",353.25,1,Oc1ccc(C(F)(F)F)cc1,le15,0,0,0,0
1-benzofuran-2-carboxylic acid,416.45,1,O=C(O)c1cc2ccccc2o1,le15,0,0,0,1
"Acetonitrile, (o-nitrophenyl)-",411.15,1,N#CCc1ccccc1[N+](=O)[O-],le15,0,0,0,0
"1,4-Phthalazinedione, 2,3-dihydro-",543.55,1,O=c1[nH][nH]c(=O)c2ccccc12,le15,0,0,0,0
"Formic acid, oxydi-, diethyl ester",342.55,1,CCOC(=O)OC(=O)OCC,le15,0,0,0,1
"Phthalimide, N-amino- (8CI)",437.75,1,NN1C(=O)c2ccccc2C1=O,le15,0,0,0,0
"1H-Indole, 5-nitro- (9CI)",446.25,1,O=[N+]([O-])c1ccc2[nH]ccc2c1,le15,0,0,0,0
"Imidazole, 1,1'-carbonyldi- (8CI)",465.65,1,O=C(n1ccnc1)n1ccnc1,le15,0,0,0,0
"1,3-Butanedione, 1-phenyl-",370.05,1,CC(=O)CC(=O)c1ccccc1,le15,0,0,0,0
"Benzene, 4-allyl-1,2-(methylenedioxy)-",370.15,1,C=CCc1ccc2c(c1)OCO2,le15,0,0,0,0
"2-Propenoic acid, 3-phenyl-, methyl ester",414.45,1,COC(=O)C=Cc1ccccc1,le15,0,0,0,1
"Benzene, 1,2-(methylenedioxy)-4-propenyl-",383.15,1,CC=Cc1ccc2c(c1)OCO2,le15,0,0,0,0
"Silane, phenyltrifluoro-",288.35,1,F[Si](F)(F)c1ccccc1,le15,1,1,0,0
"2(3H)-Furanone, dihydro-5-phenyl- (8CI)(9CI)",408.65,1,O=C1CCC(c2ccccc2)O1,le15,0,0,0,0
"2-Propenal, 3-(2-methoxyphenyl)-",407.55,1,COc1ccccc1C=CC=O,le15,0,0,0,0
4-phenylbut-3-enoic acid,488.95,1,O=C(O)CC=Cc1ccccc1,le15,0,0,0,1
"2-Propenoic acid, phenylmethyl ester",388.65,1,C=CC(=O)OCc1ccccc1,le15,0,0,0,1
"Phenol, p-vinyl-, acetate (6CI,7CI,8CI)",361.15,1,C=Cc1ccc(OC(C)=O)cc1,le15,0,0,0,0
"2-Propen-1-ol, 3-phenyl-, formate",400.85,1,O=COCC=Cc1ccccc1,le15,0,0,0,0
"2-Pyrazolin-3-ol, 1-phenyl- (7CI)",410.85,1,OC1=NN(c2ccccc2)CC1,le15,0,0,0,0
"2,3-dihydroxypropyl butanoate",384.45,1,CCCC(=O)OCC(O)CO,le15,0,0,0,0
3-methyl-1-phenylbutan-1-one,362.841,1,CC(C)CC(=O)c1ccccc1,le15,0,0,0,0
"2,2-dimethyl-1-phenylpropan-1-one",359.15,1,CC(C)(C)C(=O)c1ccccc1,le15,0,0,0,0
"1-Pentanone, 1-phenyl-",372.85,1,CCCCC(=O)c1ccccc1,le15,0,0,0,0
"1-(2,4,6-trimethylphenyl)ethanone",372.15,1,CC(=O)c1c(C)cc(C)cc1C,le15,0,0,0,0
1-(4-methylphenyl)butan-1-one,383.25,1,CCCC(=O)c1ccc(C)cc1,le15,0,0,0,0
"1-(2,4,5-trimethylphenyl)ethanone",355.35,1,CC(=O)c1cc(C)c(C)cc1C,le15,0,0,0,0
"Pyridine, 3-(1-methyl-2-pyrrolidinyl)-, (S)- (9CI)",374.85,1,CN1CCC[C@H]1c1cccnc1,le15,0,0,0,0
"1,1,1-triethoxyethane",309.25,1,CCOC(C)(OCC)OCC,le15,0,0,0,0
Diethylene glycol monobutyl ether,373.15,1,CCCCOCCOCCO,le15,0,0,0,0
"Ethane, 1,1'-oxybis(2-ethoxy-",344.25,1,CCOCCOCCOCC,le15,0,0,0,0
3-piperidin-2-ylpyridine,366.15,1,c1cncc(C2CCCCN2)c1,le15,0,0,0,0
"Ethanol, 2-(2-(2-methylpropoxy)ethoxy)-",365.95,1,CC(C)COCCOCCO,le15,0,0,0,0
"Piperazine, 1-phenyl-",411.45,1,c1ccc(N2CCNCC2)cc1,le15,0,0,0,0
"1,2,3,4,5,6-hexamethylbenzene",534.55,1,Cc1c(C)c(C)c(C)c(C)c1C,le15,0,0,0,0
"Benzene, 1,3-bis(1-methylethyl)-",349.85,1,CC(C)c1cccc(C(C)C)c1,le15,0,0,0,0
"1,3,5-triethylbenzene",354.25,1,CCc1cc(CC)cc(CC)c1,le15,0,0,0,0
hexylbenzene,356.65,1,CCCCCCc1ccccc1,le15,0,0,0,0
2-methylpentan-2-ylbenzene,346.15,1,CCCC(C)(C)c1ccccc1,le15,0,0,0,0
1-tert-butyl-4-ethylbenzene,349.05,1,CCc1ccc(C(C)(C)C)cc1,le15,0,0,0,0
"1-tert-butyl-3,5-dimethylbenzene",344.95,1,Cc1cc(C)cc(C(C)(C)C)c1,le15,0,0,0,0
"1,4-di(propan-2-yl)benzene",349.15,1,CC(C)c1ccc(C(C)C)cc1,le15,0,0,0,0
"(1Z,5E,9E)-cyclododeca-1,5,9-triene",360.95,1,C1=C\CC/C=C/CC/C=C/CC/1,le15,0,0,0,0
hexan-3-ylbenzene,347.35,1,CCCC(CC)c1ccccc1,le15,0,0,0,0
"1,2,4-trimethyl-5-propan-2-ylbenzene",355.55,1,Cc1cc(C)c(C(C)C)cc1C,le15,0,0,0,0
"2H-1,3,5-Thiadiazine-2-thione, tetrahydro-3,5-dimethyl-",361.35,1,CN1CSC(=S)N(C)C1,le15,0,0,0,0
"Butane, 1,1'-sulfinylbis-",394.55,1,CCCCS(=O)CCCC,le15,0,0,0,0
"2,2,2-trichloroacetamide",361.65,1,NC(=O)C(Cl)(Cl)Cl,le15,0,0,0,0
"Disiloxane, 1,1,1,3,3,3-hexamethyl-",280.85,1,C[Si](C)(C)O[Si](C)(C)C,le15,1,1,0,0
"Naphthalene, 1-chloro-",394.25,1,Clc1cccc2ccccc12,le15,0,0,0,0
"Naphthalene, 2-chloro-",398.15,1,Clc1ccc2ccccc2c1,le15,0,0,0,0
1chlorononane,347.0,1,CCCCCCCCCCl,le15,0,0,0,0
"Phosphorodichloridic acid, ethyl ester",301.05,1,CCOP(=O)(Cl)Cl,le15,0,0,0,1
"Phenol, 2,6-dichloro-",368.05,1,Oc1c(Cl)cccc1Cl,le15,0,0,0,0
"Phenol, 3,4-dichloro-",382.25,1,Oc1ccc(Cl)c(Cl)c1,le15,0,0,0,0
"Phenol, 2,3-dichloro-",374.75,1,Oc1cccc(Cl)c1Cl,le15,0,0,0,0
"Phenol, 2,5-dichloro-",373.15,1,Oc1cc(Cl)ccc1Cl,le15,0,0,0,0
"Phenol, 3,5-dichloro-",380.05,1,Oc1cc(Cl)cc(Cl)c1,le15,0,0,0,0
"2,4-dichloro-5-methylpyrimidine",391.65,1,Cc1cnc(Cl)nc1Cl,le15,0,0,0,0
"2,4-dichloro-6-methylpyrimidine",380.15,1,Cc1cc(Cl)nc(Cl)n1,le15,0,0,0,0
"Ethanesulfonyl chloride, 2-chloro-",349.35,1,O=S(=O)(Cl)CCCl,le15,0,0,0,0
"Thiophene, 3-bromo-",329.85,1,Brc1ccsc1,le15,0,0,0,0
2-bromothiophene,320.202,1,Brc1cccs1,le15,0,0,0,0
"Cyclohexane, bromo-",335.95,1,BrC1CCCCC1,le15,0,0,0,0
"Benzimidazole, 5-nitro- (8CI)",514.65,1,O=[N+]([O-])c1ccc2nc[nH]c2c1,le15,0,0,0,0
"1H-Indazole, 7-nitro-",458.75,1,O=[N+]([O-])c1cccc2cn[nH]c12,le15,0,0,0,0
"1H-Indazole, 5-nitro-",458.75,1,O=[N+]([O-])c1ccc2[nH]ncc2c1,le15,0,0,0,0
"1H-Benzimidazole, 2-nitro- (9CI)",478.95,1,O=[N+]([O-])c1nc2ccccc2[nH]1,le15,0,0,0,0
"1H-Indazole, 6-nitro-",458.75,1,O=[N+]([O-])c1ccc2cn[nH]c2c1,le15,0,0,0,0
"2,6-dimethoxybenzonitrile",401.95,1,COc1cccc(OC)c1C#N,le15,0,0,0,0
"1,2-Propanedione, 1-phenyl-, 2-oxime",403.85,1,CC(=NO)C(=O)c1ccccc1,le15,0,0,0,0
"Acetanilide, 4'-formyl- (8CI)",454.95,1,CC(=O)Nc1ccc(C=O)cc1,le15,0,0,0,0
"2-Propenoic acid, 3-(4-aminophenyl)-",455.75,1,Nc1ccc(C=CC(=O)O)cc1,le15,0,0,0,1
Benzoyl isothiocyanate,379.15,1,O=C(N=C=S)c1ccccc1,le15,0,0,0,0
"Adenine, N,N-dimethyl- (8CI)",485.45,1,CN(C)c1ncnc2nc[nH]c12,le15,0,0,0,0
"Glycine, N-(2-mercapto-1-oxopropyl)- (9CI)",479.95,1,CC(S)C(=O)NCC(=O)O,le15,0,0,0,0
"6-methoxy-1,2,3,4-tetrahydroquinoline",389.65,1,COc1ccc2c(c1)CCCN2,le15,0,0,0,0
"Propanamide, 2-methyl-N-phenyl- (9CI)",458.95,1,CC(C)C(=O)Nc1ccccc1,le15,0,0,0,0
"1-Butanone, 1-(4-aminophenyl)-",419.25,1,CCCC(=O)c1ccc(N)cc1,le15,0,0,0,0
"Benzothiazole, 2,5-dimethyl-",383.15,1,Cc1ccc2sc(C)nc2c1,le15,0,0,0,0
"Isothiocyanic acid, phenethyl ester",373.15,1,S=C=NCCc1ccccc1,le15,0,0,0,1
Cyclohexanesulfonamide,408.25,1,NS(=O)(=O)C1CCCCC1,le15,0,0,0,0
"N,N-diethyl-3-methylaniline",374.15,1,CCN(CC)c1cccc(C)c1,le15,0,0,0,0
"N,N-diethyl-2-methylaniline",364.35,1,CCN(CC)c1ccccc1C,le15,0,0,0,0
"N,N-diethyl-4-methylaniline",374.25,1,CCN(CC)c1ccc(C)cc1,le15,0,0,0,0
"N,N,2,4,6-pentamethylaniline",352.05,1,Cc1cc(C)c(N(C)C)c(C)c1,le15,0,0,0,0
"Acetic acid, trichloro-",339.494,1,O=C(O)C(Cl)(Cl)Cl,le15,0,0,0,1
"2-Propanol, 1,1,1-trichloro-",355.35,1,CC(O)C(Cl)(Cl)Cl,le15,0,0,0,0
dichloro-(chloromethyl)-methylsilane,308.15,1,C[Si](Cl)(Cl)CCl,le15,1,1,0,0
"Quinoline, 8-chloro-",418.35,1,Clc1cccc2cccnc12,le15,0,0,0,0
"Quinoline, 6-chloro-",386.15,1,Clc1ccc2ncccc2c1,le15,0,0,0,0
4-Chloroquinoline,383.15,1,Clc1ccnc2ccccc12,le15,0,0,0,0
3-Chloroquinoline,406.35,1,Clc1cnc2ccccc2c1,le15,0,0,0,0
"Quinoline, 2-chloro-",414.35,1,Clc1ccc2ccccc2n1,le15,0,0,0,0
"Butanamide, 2-chloro-N,N-dimethyl-3-oxo-",362.15,1,CC(=O)C(Cl)C(=O)N(C)C,le15,0,0,0,0
"Methane, bromodichloro-",274.45,1,ClC(Cl)Br,le15,0,0,0,0
"Pyrimidine, 2-amino-4,6-dichloro- (8CI)",437.75,1,Nc1nc(Cl)cc(Cl)n1,le15,0,0,0,0
"2-bromo-1,3-thiazole",336.15,1,Brc1nccs1,le15,0,0,0,0
"2,2,3,3,3-pentafluoropropanoic acid",283.45,1,O=C(O)C(F)(F)C(F)(F)F,le15,0,0,0,1
"3,3,4,4,4-pentafluorobutan-2-ol",295.15,1,CC(O)C(F)(F)C(F)(F)F,le15,0,0,0,0
1-fluoro-2-(trifluoromethyl)benzene,290.15,1,Fc1ccccc1C(F)(F)F,le15,0,0,0,0
1-fluoro-3-(trifluoromethyl)benzene,280.35,1,Fc1cccc(C(F)(F)F)c1,le15,0,0,0,0
1-fluoro-4-(trifluoromethyl)benzene,283.15,1,Fc1ccc(C(F)(F)F)cc1,le15,0,0,0,0
"1,2,4,5-tetrafluoro-3-methylbenzene",296.45,1,Cc1c(F)c(F)cc(F)c1F,le15,0,0,0,0
"Methanesulfonic acid, 1,1,1-trifluoro-, methyl ester",311.483,1,COS(=O)(=O)C(F)(F)F,le15,0,0,0,1
"Isocyanic acid, p-nitrophenyl ester (8CI)",339.15,1,O=C=Nc1ccc([N+](=O)[O-])cc1,le15,0,0,0,1
1-[ethenyl(ethoxy)phosphoryl]oxyethane,362.05,1,C=CP(=O)(OCC)OCC,le15,0,0,0,0
"Benzoic acid, 4-formyl-, methyl ester",417.15,1,COC(=O)c1ccc(C=O)cc1,le15,0,0,0,1
"Benzaldehyde, 4-(N-nitrosomethylamino)-",425.25,1,O=Cc1ccc(NCN=O)cc1,le15,0,0,0,0
"4,7-Methanoindan, 3a,4,5,6,7,7a-hexahydro-1,2:5,6-diepoxy-",407.55,1,C1C2OC2C2C1C1CC2C2OC12,le15,0,0,0,0
ethyl 2-methylbenzoate,364.85,1,CCOC(=O)c1ccccc1C,le15,0,0,0,0
"Benzenemethanol, alpha-methyl-, acetate",443.35,1,CC(=O)OC(C)c1ccccc1,le15,0,0,0,0
ethyl 4-methylbenzoate,372.55,1,CCOC(=O)c1ccc(C)cc1,le15,0,0,0,0
"Benzene, 1,2-methylenedioxy-4-propyl-",372.45,1,CCCc1ccc2c(c1)OCO2,le15,0,0,0,0
"Phenol, 2-methoxy-4-(2-propenyl)-",392.95,1,C=CCc1ccc(O)c(OC)c1,le15,0,0,0,0
"1,3-Dioxolane, 2-(phenylmethyl)-",380.95,1,c1ccc(CC2OCCO2)cc1,le15,0,0,0,0
"Acetic acid, phenyl-, ethyl ester",371.35,1,CCOC(=O)Cc1ccccc1,le15,0,0,0,1
methyl 3-phenylpropanoate,372.85,1,COC(=O)CCc1ccccc1,le15,0,0,0,0
"1-Propanol, 3-phenyl-, formate",374.55,1,O=COCCCc1ccccc1,le15,0,0,0,0
ethyl 3-methylbenzoate,374.25,1,CCOC(=O)c1cccc(C)c1,le15,0,0,0,0
"2-Propanone, 1-(4-methoxyphenyl)-",374.85,1,COc1ccc(CC(C)=O)cc1,le15,0,0,0,0
"p-Benzoquinone, 2,3,5,6-tetramethyl- (8CI)",356.75,1,CC1=C(C)C(=O)C(C)=C(C)C1=O,le15,0,0,0,0
3-methoxy-2-prop-2-enylphenol,377.05,1,C=CCc1c(O)cccc1OC,le15,0,0,0,0
"Benzoic acid, 1-methylethyl ester",366.15,1,CC(C)OC(=O)c1ccccc1,le15,0,0,0,1
2-methoxy-6-prop-1-enylphenol,397.95,1,CC=Cc1cccc(OC)c1O,le15,0,0,0,0
4-phenylbutanoic acid,461.05,1,O=C(O)CCCc1ccccc1,le15,0,0,0,1
"Benzyl alcohol, p-methyl-, acetate (6CI,7CI,8CI)",371.15,1,CC(=O)OCc1ccc(C)cc1,le15,0,0,0,0
propyl benzoate,371.45,1,CCCOC(=O)c1ccccc1,le15,0,0,0,0
"2,5-Cyclohexadiene-1,4-dione, 2-(1,1-dimethylethyl)- (9CI)",355.75,1,CC(C)(C)C1=CC(=O)C=CC1=O,le15,0,0,0,0
phenyl butanoate,363.45,1,CCCC(=O)Oc1ccccc1,le15,0,0,0,0
"2-Butanone, 4-(4-hydroxyphenyl)-",396.05,1,CC(=O)CCc1ccc(O)cc1,le15,0,0,0,0
"Benzaldehyde, 4-propoxy-",391.45,1,CCCOc1ccc(C=O)cc1,le15,0,0,0,0
"1-Propanone, 2-hydroxy-2-methyl-1-phenyl-",381.35,1,CC(C)(O)C(=O)c1ccccc1,le15,0,0,0,0
"methyl 2,4-dimethylbenzoate",470.85,1,COC(=O)c1ccc(C)cc1C,le15,0,0,0,0
"1-propanone, 1-(3-methoxyphenyl)-",372.05,1,CCC(=O)c1cccc(OC)c1,le15,0,0,0,0
2-phenylbutanoic acid,443.35,1,CCC(C(=O)O)c1ccccc1,le15,0,0,0,1
"Phenol, 2-methoxy-4-(1-propenyl)-",385.15,1,CC=Cc1ccc(O)c(OC)c1,le15,0,0,0,0
"Acetic acid, 2-phenylethyl ester",374.85,1,CC(=O)OCCc1ccccc1,le15,0,0,0,1
"Propionic acid, benzyl ester (6CI,7CI,8CI)",369.25,1,CCC(=O)OCc1ccccc1,le15,0,0,0,1
"(2,4-dimethylphenyl) acetate",362.35,1,CC(=O)Oc1ccc(C)cc1C,le15,0,0,0,0
"Oxirane, ((2-methylphenoxy)methyl)-",372.25,1,Cc1ccccc1OCC1CO1,le15,0,0,0,0
"(3,4-dimethylphenyl) acetate",364.65,1,CC(=O)Oc1ccc(C)c(C)c1,le15,0,0,0,0
"Urea, N,N-dimethyl-N'-phenyl-",426.45,1,CN(C)C(=O)Nc1ccccc1,le15,0,0,0,0
"1,1,3,3-tetramethoxypropane",327.55,1,COC(CC(OC)OC)OC,le15,0,0,0,0
"Ethanol, 2-(2-(2-methoxyethoxy)ethoxy)-",391.15,1,COCCOCCOCCO,le15,0,0,0,0
"2,2'-Dimethyl-2,2'-azodipropiononitrile",369.75,1,CC(C)(C#N)N=NC(C)(C)C#N,le15,0,0,0,0
"2,1-Benzisothiazole, 3-(methylamino)-",413.65,1,CNc1snc2ccccc12,le15,0,0,0,0
"Benzothiazole, 2-amino-4-methyl-",421.75,1,Cc1cccc2sc(N)nc12,le15,0,0,0,0
"Phenol, 4-(1,1-dimethylpropyl)-",384.15,1,CCC(C)(C)c1ccc(O)cc1,le15,0,0,0,0
4-tert-butyl-2-methylphenol,383.05,1,Cc1cc(C(C)(C)C)ccc1O,le15,0,0,0,0
"1-Propanol, 1,1-dimethyl-3-phenyl- (8CI)",379.85,1,CC(C)(O)CCc1ccccc1,le15,0,0,0,0
"Phenol, 2-pentyl-",399.45,1,CCCCCc1ccccc1O,le15,0,0,0,0
"2-Cyclopenten-1-one, 3-methyl-2-(2-pentenyl)-, (Z)-",380.35,1,CC/C=C\CC1=C(C)CCC1=O,le15,0,0,0,0
"Benzenemethanol, alpha-butyl-",383.85,1,CCCCC(O)c1ccccc1,le15,0,0,0,0
"Benzenemethanol, 4-(1,1-dimethylethyl)-",377.95,1,CC(C)(C)c1ccc(CO)cc1,le15,0,0,0,0
"Benzene, (pentyloxy)-",356.75,1,CCCCCOc1ccccc1,le15,0,0,0,0
"Phenol, 2-(1,1-dimethylethyl)-4-methyl-",375.65,1,Cc1ccc(O)c(C(C)(C)C)c1,le15,0,0,0,0
1-tert-butyl-4-methoxybenzene,361.35,1,COc1ccc(C(C)(C)C)cc1,le15,0,0,0,0
"Phenol, 2-butyl-5-methyl- (9CI)",388.95,1,CCCCc1ccc(C)cc1O,le15,0,0,0,0
4-pentylphenol,406.15,1,CCCCCc1ccc(O)cc1,le15,0,0,0,0
butoxymethylbenzene,356.55,1,CCCCOCc1ccccc1,le15,0,0,0,0
"Phenethyl alcohol, alpha-ethyl-alpha-methyl-",371.75,1,CCC(C)(O)Cc1ccccc1,le15,0,0,0,0
2-methyl-3-phenylbutan-2-ol,353.15,1,CC(c1ccccc1)C(C)(C)O,le15,0,0,0,0
1-butoxy-4-methylbenzene,368.95,1,CCCCOc1ccc(C)cc1,le15,0,0,0,0
2tertbutyl4methylphenol,373.0,1,Cc1ccc(O)c(C(C)(C)C)c1,le15,0,0,0,0
2tertbutyl6methylphenol,380.0,1,Cc1cccc(C(C)(C)C)c1O,le15,0,0,0,0
"1,4-Benzenediamine, N,N-diethyl-",412.15,1,CCN(CC)c1ccc(N)cc1,le15,0,0,0,0
"2,3,5,6-Tetramethyl-p-phenylenediamine",440.95,1,Cc1c(C)c(N)c(C)c(C)c1N,le15,0,0,0,0
"1,3-dimethyladamantane",325.15,1,CC12CC3CC(C1)CC(C)(C3)C2,le15,0,0,0,0
"Methane, trichloronitro-",346.15,1,O=[N+]([O-])C(Cl)(Cl)Cl,le15,0,0,0,0
"Acetoacetic acid, 2-chloro-, ethyl ester (8CI)",323.15,1,CCOC(=O)C(Cl)C(C)=O,le15,0,0,0,1
"Butanoic acid, 4-chloro-3-oxo-, ethyl ester",369.15,1,CCOC(=O)CC(=O)CCl,le15,0,0,0,1
1-Chlorophthalazine,478.75,1,Clc1nncc2ccccc12,le15,0,0,0,0
2-chloroethyl 3-oxobutanoate,376.55,1,CC(=O)CC(=O)OCCCl,le15,0,0,0,0
"Heptanoic acid, 7-chloro-",390.15,1,O=C(O)CCCCCCCl,le15,0,0,0,1
"Ethane, 2,2-dichloro-1,1-difluoro-1-methoxy-",336.15,1,COC(F)(F)C(Cl)Cl,le15,0,0,0,0
"Phosphorodichloridothioic acid, methyl ester",323.05,1,COP(=S)(Cl)Cl,le15,0,0,0,1
2-(bromomethyl)oxolane,343.85,1,BrCC1CCCO1,le15,0,0,0,0
1-bromo-4-methylpentane,313.25,1,CC(C)CCCBr,le15,0,0,0,0
2-bromohexane,313.25,1,CCCCC(C)Br,le15,0,0,0,0
3-Bromohexane,313.25,1,CCCC(Br)CC,le15,0,0,0,0
2-bromo-2-methylpentane,306.25,1,CCCC(C)(C)Br,le15,0,0,0,0
1-bromo-2-methylpentane,313.25,1,CCCC(C)CBr,le15,0,0,0,0
1-bromo-3-methylpentane,313.25,1,CCC(C)CCBr,le15,0,0,0,0
3-bromo-3-methylpentane,306.25,1,CCC(C)(Br)CC,le15,0,0,0,0
"2,3,5,6-tetrafluoroaniline",335.15,1,Nc1c(F)c(F)cc(F)c1F,le15,0,0,0,0
"Ethanone, 1-(4-nitrophenyl)- (9CI)",349.85,1,CC(=O)c1ccc([N+](=O)[O-])cc1,le15,0,0,0,0
"Ethanone, 1-(3-nitrophenyl)-",373.05,1,CC(=O)c1cccc([N+](=O)[O-])c1,le15,0,0,0,0
"Benzene, 1-(ethenyloxy)-4-nitro-",397.95,1,C=COc1ccc([N+](=O)[O-])cc1,le15,0,0,0,0
"Ethanone, 1-(2-nitrophenyl)-",410.95,1,CC(=O)c1ccccc1[N+](=O)[O-],le15,0,0,0,0
N-Hydroxy-9-methyladenine,481.65,1,Cn1cnc2c(NO)ncnc21,le15,0,0,0,0
"Anthranilic acid, ethyl ester (6CI,7CI,8CI)",399.65,1,CCOC(=O)c1ccccc1N,le15,0,0,0,1
ethyl N-phenylcarbamate,352.35,1,CCOC(=O)Nc1ccccc1,le15,0,0,0,0
ethyl 3-aminobenzoate,384.55,1,CCOC(=O)c1cccc(N)c1,le15,0,0,0,0
"Benzamide, 2-ethoxy-",426.85,1,CCOc1ccccc1C(N)=O,le15,0,0,0,0
"Carbamic acid, methyl-, 3-methylphenyl ester",373.05,1,CNC(=O)Oc1cccc(C)c1,le15,0,0,0,1
"Benzamide, 2-hydroxy-N,N-dimethyl- (9CI)",417.45,1,CN(C)C(=O)c1ccccc1O,le15,0,0,0,0
(2S)-2-amino-3-phenylpropanoic acid,412.95,1,N[C@@H](Cc1ccccc1)C(=O)O,le15,0,0,0,1
"1,2,4-trimethyl-5-nitrobenzene",395.05,1,Cc1cc(C)c([N+](=O)[O-])cc1C,le15,0,0,0,0
1-isothiocyanato-4-methoxybenzene,392.65,1,COc1ccc(N=C=S)cc1,le15,0,0,0,0
"Phenol, 3-(diethylamino)-",412.25,1,CCN(CC)c1cccc(O)c1,le15,0,0,0,0
"Ethanol, 2-(N-ethylanilino)- (8CI)",404.15,1,CCN(CCO)c1ccccc1,le15,0,0,0,0
"Benzenemethanol, alpha-((1S)-1-(methylamino)ethyl)-, (alphaR)-",358.15,1,CN[C@@H](C)[C@H](O)c1ccccc1,le15,0,0,0,0
"(1S,2R)-2-(methylamino)-1-phenylpropan-1-ol",358.75,1,CN[C@H](C)[C@@H](O)c1ccccc1,le15,0,0,0,0
2-Amino-4-tert-butylphenol,393.25,1,CC(C)(C)c1ccc(O)c(N)c1,le15,0,0,0,0
"Ethanol, 2-((2-phenylethyl)amino)- (9CI)",401.55,1,OCCNCCc1ccccc1,le15,0,0,0,0
"Benzenamine, 4-butoxy-",396.75,1,CCCCOc1ccc(N)cc1,le15,0,0,0,0
"1,1-Ethanediol, 2,2,2-trichloro-",330.45,1,OC(O)C(Cl)(Cl)Cl,le15,0,0,0,0
Tetrachloroethylene,318.0,1,ClC(Cl)=C(Cl)Cl,le15,0,0,0,0
"1H-Pyrrole-2,5-dione, 3,4-dichloro-",367.75,1,O=C1NC(=O)C(Cl)=C1Cl,le15,0,0,0,0
"2,3,5,6-tetrafluorophenol",352.55,1,Oc1c(F)c(F)cc(F)c1F,le15,0,0,0,0
"1,3-Benzenedicarboxylic acid",469.899,1,O=C(O)c1cccc(C(=O)O)c1,le15,0,0,0,1
"Benzamide, 2-nitro- (9CI)",419.189,1,NC(=O)c1ccccc1[N+](=O)[O-],le15,0,0,0,0
"Benzamide, 4-nitro-",449.45,1,NC(=O)c1ccc([N+](=O)[O-])cc1,le15,0,0,0,0
"Benzaldehyde, 4-nitro-, oxime (9CI)",410.95,1,O=[N+]([O-])c1ccc(C=NO)cc1,le15,0,0,0,0
(Z)-2-fluoro-3-phenylprop-2-enoic acid,401.85,1,O=C(O)/C(F)=C/c1ccccc1,le15,0,0,0,1
"Phosphonic acid, ethyl-, diethyl ester",365.85,1,CCOP(=O)(CC)OCC,le15,0,0,0,1
"Phosphorous acid, triethyl ester",327.25,1,CCOP(OCC)OCC,le15,0,0,0,1
"Phosphonic acid, bis(1-methylethyl) ester",365.95,1,CC(C)O[PH](=O)OC(C)C,le15,0,0,0,1
"Benzaldehyde, 2,5-dimethoxy-",393.79400000000004,1,COc1ccc(OC)c(C=O)c1,le15,0,0,0,0
"Benzeneacetic acid, 4-methoxy-",397.45,1,COc1ccc(CC(=O)O)cc1,le15,0,0,0,1
"Benzaldehyde, 3,4-dimethoxy-",383.55,1,COc1ccc(C=O)cc1OC,le15,0,0,0,0
ethyl 4-hydroxybenzoate,393.45,1,CCOC(=O)c1ccc(O)cc1,le15,0,0,0,0