compound,flashpoint,pure substance,smiles,source,is_silicon,is_metallic,is_tin,is_acid
"2,3dimethylaniline",370.15,1,Cc1cccc(N)c1C,le15,0,0,0,0
"2,3dimethylbutane",244.15,1,CC(C)C(C)C,le15,0,0,0,0
"2,3dimethylheptane",363.0,1,CCCCC(C)C(C)C,le15,0,0,0,0
"2,3dimethylhexane",270.0,1,CCCC(C)C(C)C,le15,0,0,0,0
"2,3dimethyloxirane",258.15,1,CC1OC1C,le15,0,0,0,0
"2,3dimethylpentane",267.0,1,CCC(C)C(C)C,le15,0,0,0,0
"2,3dimethylphenol",368.0,1,Cc1cccc(O)c1C,le15,0,0,0,0
"2,3pentadiene-",236.15,1,CC=C=CC,le15,0,0,0,0
"2,4dichlorophenol",387.05,1,Oc1ccc(Cl)cc1Cl,le15,0,0,0,0
"2,4dimethyl3ethylpentane",288.15,1,CCC(C(C)C)C(C)C,le15,0,0,0,0
"2,4dimethyl3pentanone",288.15,1,CC(C)C(=O)C(C)C,le15,0,0,0,0
"2,4dimethylpentane",260.95,1,CC(C)CC(C)C,le15,0,0,0,0
"2,4dimethylphenol",367.0,1,Cc1ccc(O)c(C)c1,le15,0,0,0,0
"2,4dimethylpyridine",310.35,1,Cc1ccnc(C)c1,le15,0,0,0,0
"2,4hexadiene-",266.15,1,CC=CC=CC,le15,0,0,0,0
"2,4pentadienylTrimethylSilane",291.15,1,C=CC=CC[Si](C)(C)C,le15,1,1,0,0
"2,4pentanedione",307.15,1,CC(=O)CC(C)=O,le15,0,0,0,0
"2,5dihydrofuran-",257.15,1,C1=CCOC1,le15,0,0,0,0
"2,5dimethoxychlorobenzene",390.35,1,COc1ccc(OC)c(Cl)c1,le15,0,0,0,0
"2,5dimethylphenol",368.0,1,Cc1ccc(C)c(O)c1,le15,0,0,0,0
"2,5hexanediol",383.15,1,CC(O)CCC(C)O,le15,0,0,0,0
"2,5hexanedione",352.15,1,CC(=O)CCC(C)=O,le15,0,0,0,0
"2,5norbornadiene",262.0,1,C1=CC2C=CC1C2,le15,0,0,0,0
"2,6dimethyl4heptanol",339.15,1,CC(C)CC(O)CC(C)C,le15,0,0,0,0
"2,6dimethyl4heptanone",322.15,1,CC(C)CC(=O)CC(C)C,le15,0,0,0,0
"2,6dimethylphenol",346.0,1,Cc1cccc(C)c1O,le15,0,0,0,0
2amino2methyl1propanol,340.35,1,CC(C)(N)CO,le15,0,0,0,0
2bromoethyltrichlorosilane,313.15,1,Cl[Si](Cl)(Cl)CCBr,le15,1,1,0,0
2bromovinylTrimethylSilane,288.15,1,C[Si](C)(C)C=CBr,le15,1,1,0,0
2butanol,297.15,1,CCC(C)O,le15,0,0,0,0
2butanone,264.15,1,CCC(C)=O,le15,0,0,0,0
2butoxyethylacetate,344.15,1,CCCCOCCOC(C)=O,le15,0,0,0,0
2butyl1octanol,383.15,1,CCCCCCC(CO)CCCC,le15,0,0,0,0
2butyne-,224.15,1,CC#CC,le15,0,0,0,0
2chloro1propanol,324.85,1,CC(Cl)CO,le15,0,0,0,0
2chloro1propene-,239.15,1,C=C(C)Cl,le15,0,0,0,0
2chlorobenzenamine,364.15,1,Nc1ccccc1Cl,le15,0,0,0,0
2chlorobutane,258.15,1,CCC(C)Cl,le15,0,0,0,0
2chloroethanol,333.15,1,OCCCl,le15,0,0,0,0
2chloroethylacetate,339.25,1,CC(=O)OCCCl,le15,0,0,0,0
2chloroethyltrichlorosilane,301.15,1,ClCC[Si](Cl)(Cl)Cl,le15,1,1,0,0
2chloromethyl3trimethylsilyl1propene,316.15,1,C=C(CCl)C[Si](C)(C)C,le15,1,1,0,0
2chloropropionicAcid,380.35,1,CC(Cl)C(=O)O,le15,0,0,0,0
2chlorotoluene,316.0,1,Cc1ccccc1Cl,le15,0,0,0,0
2cyanoethylMethylDichloroSilane,333.15,1,C[Si](Cl)(Cl)CCC#N,le15,1,1,0,0
2cyanoethylTriethoxySilane,359.15,1,CCO[Si](CCC#N)(OCC)OCC,le15,1,1,0,0
2cyclohexen1one,307.15,1,O=C1C=CCCC1,le15,0,0,0,0
2decene,320.15,1,CC=CCCCCCCC,le15,0,0,0,0
2dodecene,351.15,1,CC=CCCCCCCCCC,le15,0,0,0,0
2ethoxyethanol,316.45,1,CCOCCO,le15,0,0,0,0
2ethoxyethylacetate,320.35,1,CCOCCOC(C)=O,le15,0,0,0,0
2ethyl1butanol,330.15,1,CCC(CC)CO,le15,0,0,0,0
2ethyl1hexanol,346.15,1,CCCCC(CC)CO,le15,0,0,0,0
2ethyl1pentene-,263.15,1,C=C(CC)CCC,le15,0,0,0,0
2ethyl2hexenal,341.15,1,CCCC=C(C=O)CC,le15,0,0,0,0
2ethylbenzenamine,364.15,1,CCc1ccccc1N,le15,0,0,0,0
2ethylhexanal,317.15,1,CCCCC(C=O)CC,le15,0,0,0,0
2ethylhexylacetate,344.15,1,CCCCC(CC)COC(C)=O,le15,0,0,0,0
2ethylhexylacrylate,359.0,1,C=CC(=O)OCC(CC)CCCC,le15,0,0,0,0
2fluoro2methylpropane,260.95,1,CC(C)(C)F,le15,0,0,0,0
2furancarboxaldehyde,333.15,1,O=Cc1ccco1,le15,0,0,0,0
2heptanone,320.15,1,CCCCCC(C)=O,le15,0,0,0,0
2hexanol,330.95,1,CCCCC(C)O,le15,0,0,0,0
2hexanone,308.15,1,CCCCC(C)=O,le15,0,0,0,0
2hydroxy3butenenitrile,366.15,1,C=CC(O)C#N,le15,0,0,0,0
2iodobutane,301.15,1,CCC(C)I,le15,0,0,0,0
2iodotoluene,363.15,1,Cc1ccccc1I,le15,0,0,0,0
2isopropylbiphenyl,413.75,1,CC(C)c1ccccc1-c1ccccc1,le15,0,0,0,0
2methoxy1propanol,309.15,1,COC(C)CO,le15,0,0,0,0
2methoxyethanol,312.15,1,COCCO,le15,0,0,0,0
2methoxyethylacetate,322.15,1,COCCOC(C)=O,le15,0,0,0,0
2methyl1butene3yne-,221.15,1,C#CC(=C)C,le15,0,0,0,0
2methyl1hexanol,333.15,1,CCCCC(C)CO,le15,0,0,0,0
2methyl1Hindene,344.15,1,CC1=Cc2ccccc2C1,le15,0,0,0,0
2methyl1propanethiol-,264.15,1,CC(C)CS,le15,0,0,0,0
2methyl2pentenal,304.15,1,CCC=C(C)C=O,le15,0,0,0,0
2methyl2propen1ol,306.45,1,C=C(C)CO,le15,0,0,0,0
2methyl2propenoicAcid,340.15,1,C=C(C)C(=O)O,le15,0,0,0,0
2methylallylchloride,261.15,1,C=C(C)CCl,le15,0,0,0,0
2methylaminoEthanol,347.05,1,CNCCO,le15,0,0,0,0
2methylaziridine-,263.15,1,CC1CN1,le15,0,0,0,0
2methylbenzaldehyde,340.15,1,Cc1ccccc1C=O,le15,0,0,0,0
2methylbenzenamine,358.15,1,Cc1ccccc1N,le15,0,0,0,0
2methylbenzofuran,340.15,1,Cc1cc2ccccc2o1,le15,0,0,0,0
2methylbutylAmine-,257.15,1,CCC(C)CN,le15,0,0,0,0
2methylpropylBenzene,325.15,1,CC(C)Cc1ccccc1,le15,0,0,0,0
2methylpyridine,299.15,1,Cc1ccccn1,le15,0,0,0,0
2methyltetrahydrofuran,262.05,1,CC1CCCO1,le15,0,0,0,0
2methylvalericacid,364.25,1,CCCC(C)C(=O)O,le15,0,0,0,1
2naphthol,426.15,1,Oc1ccc2ccccc2c1,le15,0,0,0,0
2nitrobiphenyl,452.15,1,O=[N+]([O-])c1ccccc1-c1ccccc1,le15,0,0,0,0
2nitropropane,297.15,1,CC(C)[N+](=O)[O-],le15,0,0,0,0
2nonanol,355.15,1,CCCCCCCC(C)O,le15,0,0,0,0
2nonanone,333.15,1,CCCCCCCC(C)=O,le15,0,0,0,0
2octanol,360.95,1,CCCCCCC(C)O,le15,0,0,0,0
2octanone,335.15,1,CCCCCCC(C)=O,le15,0,0,0,0
2oxolan2yloxolane,362.15,1,C1COC(C2CCCO2)C1,le15,0,0,0,0
2pentaneamine,266.45,1,CCCC(C)N,le15,0,0,0,0
2pentanone,280.35,1,CCCC(C)=O,le15,0,0,0,0
2pentene-,226.15,1,CC=CCC,le15,0,0,0,0
2phenoxyethanol,394.25,1,OCCOc1ccccc1,le15,0,0,0,0
2phenylethanol,375.15,1,OCCc1ccccc1,le15,0,0,0,0
2phenylphenol,397.05,1,Oc1ccccc1-c1ccccc1,le15,0,0,0,0
2propanol,285.15,1,CC(C)O,le15,0,0,0,0
2propenal,254.25,1,C=CC=O,le15,0,0,0,0
2propenenitrile,273.15,1,C=CC#N,le15,0,0,0,0
2propenylAcetate,295.15,1,CC=CCC(=O)[O-],le15,0,0,0,0
"3,3dimethyl1butene",245.0,1,C=CC(C)(C)C,le15,0,0,0,0
"3,3dimethyl2butanone",285.15,1,CC(=O)C(C)(C)C,le15,0,0,0,0
"3,3dimethylbutanoicacid",361.0,1,CC(C)(C)CC(=O)O,le15,0,0,0,1
"3,4dichloro1butene",301.15,1,C=CC(Cl)CCl,le15,0,0,0,0
"3,4dihydro2Hpyran",255.15,1,C1=COCCC1,le15,0,0,0,0
3amino1propanol,352.15,1,NCCCO,le15,0,0,0,0
3bromo1trimethylsilyl1propyne,335.15,1,C[Si](C)(C)C#CCBr,le15,1,1,0,0
3bromopropyltrichlorosilane,361.15,1,Cl[Si](Cl)(Cl)CCCBr,le15,1,1,0,0
3bromopropylTrimethoxySilane,355.15,1,CO[Si](CCCBr)(OC)OC,le15,1,1,0,0
3buten1ol,310.95,1,C=CCCO,le15,0,0,0,0
3butenenitrile,294.15,1,C=CCC#N,le15,0,0,0,0
3chloro1propene-,241.15,1,C=CCCl,le15,0,0,0,0
3chloro2methylpropylMethylDichloroSilane,363.15,1,CC(CCl)C[Si](C)(Cl)Cl,le15,1,1,0,0
3chloropropylDimethylChloroSilane,313.15,1,C[Si](C)(Cl)CCCCl,le15,1,1,0,0
3chloropropylMethylDichloroSilane,359.15,1,C[Si](Cl)(Cl)CCCCl,le15,1,1,0,0
3chloropropylMethylDimethoxySilane,318.15,1,CO[Si](C)(CCCCl)OC,le15,1,1,0,0
3chloropropylTriethoxySilane,335.15,1,CCO[Si](CCCCl)(OCC)OCC,le15,1,1,0,0
3chloropropylTrimethoxySilane,351.15,1,CO[Si](CCCCl)(OC)OC,le15,1,1,0,0
3ethoxypropionaldehyde,311.15,1,CCOCCC=O,le15,0,0,0,0
3ethoxypropionicacid,380.35,1,CCOCCC(=O)O,le15,0,0,0,1
3ethyl1heptanol,363.15,1,CCCCC(CC)CCO,le15,0,0,0,0
3ethyl1hexene,274.15,1,C=CC(CC)CCC,le15,0,0,0,0
3ethyl1pentene-,256.15,1,C=CC(CC)CC,le15,0,0,0,0
3ethyl4methylhexane,297.15,1,CCC(C)C(CC)CC,le15,0,0,0,0
3ethylheptanal,328.15,1,CCCCC(CC)CC=O,le15,0,0,0,0
3ethylheptane,295.15,1,CCCCC(CC)CC,le15,0,0,0,0
3heptanone,310.15,1,CCCCC(=O)CC,le15,0,0,0,0
3hexyne-,256.15,1,CCC#CCC,le15,0,0,0,0
3iodotoluene,355.35,1,Cc1cccc(I)c1,le15,0,0,0,0
3isopropoxypropionitrile,341.45,1,CC(C)OCCC#N,le15,0,0,0,0
3methacryloxyPropylTrimethoxySilane,365.15,1,C=C(C)C(=O)OCCC[Si](OC)(OC)OC,le15,1,1,0,0
3methoxypropylamine,305.35,1,COCCCN,le15,0,0,0,0
3methyl1butyne-,221.15,1,C#CC(C)C,le15,0,0,0,0
3methyl1hexene-,267.15,1,C=CC(C)CCC,le15,0,0,0,0
3methyl3buten2one,294.15,1,C=C(C)C(C)=O,le15,0,0,0,0
3methyl3pentanol,297.15,1,CCC(C)(O)CC,le15,0,0,0,0
3methylbenzaldehyde,351.15,1,Cc1cccc(C=O)c1,le15,0,0,0,0
3methylbenzenamine,359.15,1,Cc1cccc(N)c1,le15,0,0,0,0
3methylbutanal-,268.15,1,CC(C)CC=O,le15,0,0,0,0
3methylbutylAcetate,298.15,1,CC(=O)OCCC(C)C,le15,0,0,0,0
3methylthiophene,284.15,1,Cc1ccsc1,le15,0,0,0,0
3methylthioPropionaldehyde,334.25,1,CCCC=S,le15,0,0,0,0
3nonanone,339.15,1,CCCCCCC(=O)CC,le15,0,0,0,0
3pyridinecarbonitrile,357.15,1,N#Cc1cccnc1,le15,0,0,0,0
3trimethylsilylCyclopentene,299.15,1,C[Si](C)(C)C1C=CCC1,le15,1,1,0,0
4bromobiphenyl,417.05,1,Brc1ccc(-c2ccccc2)cc1,le15,0,0,0,0
4butylalcohol,284.15,1,CCCCO,le15,0,0,0,0
4chlorophenylisocyanate,383.15,1,O=C=Nc1ccc(Cl)cc1,le15,0,0,0,0
4ethylphenol,377.05,1,CCc1ccc(O)cc1,le15,0,0,0,0
4heptanone,322.15,1,CCCC(=O)CCC,le15,0,0,0,0
4hydroxy4methyl2pentanone,331.15,1,CC(=O)CC(C)(C)O,le15,0,0,0,0
4methyl1heptene,275.15,1,C=CCC(C)CCC,le15,0,0,0,0
4methyl1hexene-,258.15,1,C=CCC(C)CC,le15,0,0,0,0
4methyl1octanol,358.15,1,CCCCC(C)CCCO,le15,0,0,0,0
4methyl2pentanone,291.15,1,CC(=O)CC(C)C,le15,0,0,0,0
4methyl2pentene-,238.15,1,CC=CC(C)C,le15,0,0,0,0
4methyl3penten2one,304.15,1,CC(=O)C=C(C)C,le15,0,0,0,0
4methylbenzaldehyde,353.15,1,Cc1ccc(C=O)cc1,le15,0,0,0,0
4methylbenzenamine,360.15,1,Cc1ccc(N)cc1,le15,0,0,0,0
4methylcyclohexanol,343.15,1,CC1CCC(O)CC1,le15,0,0,0,0
4methylene2oxetanone,307.15,1,C=C1CC(=O)O1,le15,0,0,0,0
4methylmorpholine,297.05,1,CN1CCOCC1,le15,0,0,0,0
4nonanone,335.15,1,CCCCCC(=O)CCC,le15,0,0,0,0
4octanone,318.15,1,CCCCC(=O)CCC,le15,0,0,0,0
4tertButyl2methylphenol,390.95,1,Cc1cc(C(C)(C)C)ccc1O,le15,0,0,0,0
4vinyl1cyclohexene,289.25,1,C=CC1CC=CCC1,le15,0,0,0,0
5hexen2one,296.15,1,C=CCCC(C)=O,le15,0,0,0,0
5methyl2hexanone,309.15,1,CC(=O)CCC(C)C,le15,0,0,0,0
6methyl1octanol,360.15,1,CCC(C)CCCCCO,le15,0,0,0,0
6methyl3heptanone,318.15,1,CCC(=O)CCC(C)C,le15,0,0,0,0
7methyl1octene,291.15,1,C=CCCCCC(C)C,le15,0,0,0,0
8methyl1nonene,316.15,1,C=CCCCCCC(C)C,le15,0,0,0,0
Acetaldehyde,246.15,1,CC=O,le15,0,0,0,0
Acetanilide,446.15,1,CC(=O)Nc1ccccc1,le15,0,0,0,0
Aceticacid,312.15,1,CC(=O)O,le15,0,0,0,1
Acetone,253.15,1,CC(C)=O,le15,0,0,0,0
Acetophenone,350.15,1,CC(=O)c1ccccc1,le15,0,0,0,0
AcetoxymethylTrimethylSilane,293.15,1,CC(=O)OC[Si](C)(C)C,le15,1,1,0,0
AcetoxyTrimethylSilane,277.15,1,CC(=O)O[Si](C)(C)C,le15,1,1,0,0
Acetylchloride,277.15,1,CC(=O)Cl,le15,0,0,0,0
Acrylicacid,327.15,1,C=CC(=O)O,le15,0,0,0,1
AdipicAcid,469.15,1,O=C(O)CCCCC(=O)O,le15,0,0,0,0
Allylalcohol,294.15,1,C=CCO,le15,0,0,0,0
Allylamine,244.15,1,C=CCN,le15,0,0,0,0
Allylchloride,241.15,1,C=CCCl,le15,0,0,0,0
AllylChloromethylDimethylSilane,300.15,1,C=CC[Si](C)(C)CCl,le15,1,1,0,0
AllylDimethylChloroSilane,278.15,1,C=CC[Si](C)(C)Cl,le15,1,1,0,0
AllylDimethylSilane-,253.15,1,C=CC[SiH](C)C,le15,1,1,0,0
AllylIsothiocyanate,319.25,1,C=CCN=C=S,le15,0,0,0,0
AllylMethylDichloroSilane,300.15,1,C=CCC[SiH](Cl)Cl,le15,1,1,0,0
AllyloxytrimethylSilane,273.15,1,C=CCO[Si](C)(C)C,le15,1,1,0,0
AllylPhenylDichloroSilane,349.15,1,C=CC[Si](Cl)(Cl)c1ccccc1,le15,1,1,0,0
AllylTrichloroSilane,304.15,1,C=CC[Si](Cl)(Cl)Cl,le15,1,1,0,0
AllylTriethoxySilane,320.15,1,C=CC[Si](OCC)(OCC)OCC,le15,1,1,0,0
AllylTrimethoxySilane,319.15,1,C=CC[Si](OC)(OC)OC,le15,1,1,0,0
AllylTrimethylSilane,280.15,1,C=CC[Si](C)(C)C,le15,1,1,0,0
alphaMethylstyrene,327.05,1,C=C(C)c1ccccc1,le15,0,0,0,0
AminoethylAminopropylTrimethoxySilane,369.15,1,CO[Si](CCCNCCN)(OC)OC,le15,1,1,0,0
Aniline,343.15,1,Nc1ccccc1,le15,0,0,0,0
Anthracene,394.15,1,c1ccc2cc3ccccc3cc2c1,le15,0,0,0,0
Anthraquinone,458.15,1,O=C1c2ccccc2C(=O)c2ccccc21,le15,0,0,0,0
Aziridine,262.05,1,C1CN1,le15,0,0,0,0
Benzaldehyde,336.15,1,O=Cc1ccccc1,le15,0,0,0,0
Benzene,262.15,1,c1ccccc1,le15,0,0,0,0
BenzoicAcid,394.15,1,O=C(O)c1ccccc1,le15,0,0,0,0
Benzonitrile,344.85,1,N#Cc1ccccc1,le15,0,0,0,0
Benzoylchloride,345.15,1,O=C(Cl)c1ccccc1,le15,0,0,0,0
Benzylacetate,363.75,1,O=C([O-])CCc1ccccc1,le15,0,0,0,0
Benzylbenzoate,421.15,1,O=C(OCc1ccccc1)c1ccccc1,le15,0,0,0,0
Benzylchloride,340.15,1,ClCc1ccccc1,le15,0,0,0,0
BenzylDimethylChloroSilane,346.15,1,C[Si](C)(Cl)Cc1ccccc1,le15,1,1,0,0
BenzylDimethylSilane,338.15,1,C[SiH](C)Cc1ccccc1,le15,1,1,0,0
BenzylTrichloroSilane,360.15,1,Cl[Si](Cl)(Cl)Cc1ccccc1,le15,1,1,0,0
BenzylTrimethylSilane,335.15,1,C[Si](C)(C)Cc1ccccc1,le15,1,1,0,0
Bicyclohexyl,365.0,1,C1CCC(C2CCCCC2)CC1,le15,0,0,0,0
BischloromethylDimethylSilane,319.15,1,C[Si](C)(CCl)CCl,le15,1,1,0,0
bisChloromethylMethylChloroSilane,315.15,1,C[Si](Cl)(CCl)CCl,le15,1,1,0,0
BisDiethylaminoDimethylSilane,308.15,1,CCN(CC)[Si](C)(C)N(CC)CC,le15,1,1,0,0
BisDimethylaminoDimethylSilane-,266.15,1,CN(C)[Si](C)(C)N(C)C,le15,1,1,0,0
BisDimethylaminoMethylSilane-,270.15,1,CN(C)C([SiH3])N(C)C,le15,1,1,0,0
BistrimethylsilylCarbodiimide,315.15,1,C[Si](C)(C)N=C=N[Si](C)(C)C,le15,1,1,0,0
BisTrimethylsilylMethane,285.15,1,C[Si](C)(C)C[Si](C)(C)C,le15,1,1,0,0
Bromobenzene,324.15,1,Brc1ccccc1,le15,0,0,0,0
Bromomethyldimethylchlorosilane,314.15,1,C[Si](C)(Cl)CBr,le15,1,1,0,0
BromomethylTrimethylSilane,289.15,1,C[Si](C)(C)CBr,le15,1,1,0,0
Bromopentafluorobenzene,360.15,1,Fc1c(F)c(F)c(Br)c(F)c1F,le15,0,0,0,0
Butylacetate,297.15,1,CCCCOC(C)=O,le15,0,0,0,0
Butylacrylate,312.0,1,C=CC(=O)OCCCC,le15,0,0,0,0
Butylamine,272.15,1,CCCCN,le15,0,0,0,0
Butylchloride,263.75,1,CCCCCl,le15,0,0,0,0
ButylDimethylAmine-,270.15,1,CCCCN(C)C,le15,0,0,0,0
Butylethylether,277.55,1,CCCCOCC,le15,0,0,0,0
Butylformate,291.15,1,CCCCOC=O,le15,0,0,0,0
ButylIsocyanate,299.85,1,CCCCN=C=O,le15,0,0,0,0
ButylIsothiocyanate,338.75,1,CCCCN=C=S,le15,0,0,0,0
ButylIsovalerate,326.15,1,CCCCOC(=O)CC(C)C,le15,0,0,0,0
butylnitrate,309.25,1,CCCCO[N+](=O)[O-],le15,0,0,0,0
Butylpropionate,305.15,1,CCCCOC(=O)CC,le15,0,0,0,0
Butyraldehyde,266.45,1,CCCC=O,le15,0,0,0,0
Butyricacid,350.15,1,CCCC(=O)O,le15,0,0,0,1
Butyronitrile,289.85,1,CCCC#N,le15,0,0,0,0
Chlorobenzene,302.15,1,Clc1ccccc1,le15,0,0,0,0
Chlorocyclohexane,305.15,1,ClC1CCCCC1,le15,0,0,0,0
ChloromethylBenzene,333.15,1,ClCc1ccccc1,le15,0,0,0,0
ChloromethylDimethylchlorosilane,294.15,1,C[Si](C)(Cl)CCl,le15,1,1,0,0
ChloromethylDimethylEthoxySilane,299.15,1,CCO[Si](C)(C)CCl,le15,1,1,0,0
ChloromethylDimethylPhenylSilane,326.15,1,C[Si](C)(CCl)c1ccccc1,le15,1,1,0,0
Chloromethylmethyldichlorosilane,293.15,1,C[Si](Cl)(Cl)CCl,le15,1,1,0,0
ChloromethylMethylDiethoxySilane,311.15,1,CCO[Si](C)(CCl)OCC,le15,1,1,0,0
ChloromethylTriethoxySilane,320.15,1,CCO[Si](CCl)(OCC)OCC,le15,1,1,0,0
ChloromethylTrimethoxySilane,299.15,1,CO[Si](CCl)(OC)OC,le15,1,1,0,0
ChloromethylTrimethylSilane-,271.15,1,C[Si](C)(C)CCl,le15,1,1,0,0
cisDecalin,331.15,1,C1CC[C@H]2CCCC[C@H]2C1,le15,0,0,0,0
Crotonaldehyde,286.15,1,C/C=C/C=O,le15,0,0,0,0
Cumene,309.15,1,CC(C)c1ccccc1,le15,0,0,0,0
Cyclohexane,253.15,1,C1CCCCC1,le15,0,0,0,0
Cyclohexanol,341.15,1,OC1CCCCC1,le15,0,0,0,0
Cyclohexyl ,488.05,1,[CH]1CCCCC1,le15,0,0,0,0
CyclohexylAcetate,331.15,1,O=C([O-])CC1CCCCC1,le15,0,0,0,0
CyclohexylBenzene,372.15,1,c1ccc(C2CCCCC2)cc1,le15,0,0,0,0
CyclohexylDimethylSilane,336.15,1,C[SiH](C)C1CCCCC1,le15,1,1,0,0
CyclohexylIsocyanate,322.05,1,O=C=NC1CCCCC1,le15,0,0,0,0
CyclohexylMethylDichloroSilane,339.15,1,Cl[SiH](Cl)CC1CCCCC1,le15,1,1,0,0
CyclohexylMethylDimethoxySilane,339.15,1,CO[SiH](CC1CCCCC1)OC,le15,1,1,0,0
CyclohexylTrichloroSilane,364.15,1,Cl[Si](Cl)(Cl)C1CCCCC1,le15,1,1,0,0
CyclopentadienylTrimethylSilane,302.15,1,C[Si](C)(C)C1C=CC=C1,le15,1,1,0,0
Cyclopentane,236.15,1,C1CCCC1,le15,0,0,0,0
Cyclopentanol,324.15,1,OC1CCCC1,le15,0,0,0,0
Cyclopentanone,299.15,1,O=C1CCCC1,le15,0,0,0,0
CyclopentenyloxyTrimethylSilane,311.15,1,C[Si](C)(C)OC1=CCCC1,le15,1,1,0,0
CyclopentylDichloroSilane,316.15,1,Cl[SiH](Cl)C1CCCC1,le15,1,1,0,0
CyclopentylTrichloroSilane,350.15,1,Cl[Si](Cl)(Cl)C1CCCC1,le15,1,1,0,0
Cyclopropanecarbonitrile,305.95,1,N#CC1CC1,le15,0,0,0,0
DecamethylCyclopentasiloxane,350.15,1,C[Si]1(C)O[Si](C)(C)O[Si](C)(C)O[Si](C)(C)O[Si](C)(C)O1,le15,1,1,0,0
DecamethylTetraSiloxane,335.15,1,C[Si](C)(C)O[Si](C)(C)O[Si](C)(C)O[Si](C)(C)C,le15,1,1,0,0
Decane,321.15,1,CCCCCCCCCC,le15,0,0,0,0
Decylamine,372.15,1,CCCCCCCCCCN,le15,0,0,0,0
Diallylphthalate,438.75,1,C=CCOC(=O)c1ccccc1C(=O)OCC=C,le15,0,0,0,0
DiallylSulfide,319.25,1,C=CCSCC=C,le15,0,0,0,0
Dibenzylether,408.15,1,c1ccc(COCc2ccccc2)cc1,le15,0,0,0,0
Dibutoxymethane,333.15,1,CCCCOCOCCCC,le15,0,0,0,0
Dibutylamine,313.15,1,CCCCNCCCC,le15,0,0,0,0
Dibutyldisulfide,366.45,1,CCCCSSCCCC,le15,0,0,0,0
Dibutylether,298.15,1,CCCCOCCCC,le15,0,0,0,0
Dibutylsebacate,440.0,1,CCCCOC(=O)CCCCCCCCC(=O)OCCCC,le15,0,0,0,0
Dibutylsulfide,349.85,1,CCCCSCCCC,le15,0,0,0,0
Dibutylsulfone,416.15,1,CCCCS(=O)(=O)CCCC,le15,0,0,0,0
DichloroAcetaldehyde,333.15,1,O=CC(Cl)Cl,le15,0,0,0,0
Dichloroacetylchloride,339.25,1,O=C(Cl)C(Cl)Cl,le15,0,0,0,0
DichloromethylBenzene,353.15,1,ClC(Cl)c1ccccc1,le15,0,0,0,0
DichloromethylMethylDichloroSilane,301.15,1,C[Si](Cl)(Cl)C(Cl)Cl,le15,1,1,0,0
DichloroSilane-,236.15,1,Cl[SiH2]Cl,le15,1,1,0,0
Diethylamine,250.15,1,CCNCC,le15,0,0,0,0
DiethylaminoTrimethylSilane,283.15,1,CCN(CC)[Si](C)(C)C,le15,1,1,0,0
DiethylDichloroSilane,300.15,1,CC[Si](Cl)(Cl)CC,le15,1,1,0,0
DiethylDiethoxySilane,316.15,1,CCO[Si](CC)(CC)OCC,le15,1,1,0,0
DiethyleneGlycol,397.15,1,OCCOCCO,le15,0,0,0,0
Diethylenetriamine,371.15,1,NCCNCCN,le15,0,0,0,0
Diethylether,228.15,1,CCOCC,le15,0,0,0,0
DiethylMethylChloroSilane,288.15,1,CC[Si](C)(Cl)CC,le15,1,1,0,0
DiethylPhosphate,364.15,1,CCOP(=O)([O-])OCC,le15,0,0,0,0
DiethylSilane-,253.15,1,CC[SiH2]CC,le15,1,1,0,0
Diethylsulfide,263.75,1,CCSCC,le15,0,0,0,0
Dihexylether,350.15,1,CCCCCCOCCCCCC,le15,0,0,0,0
Diisobutylamine,302.15,1,CC(C)CNCC(C)C,le15,0,0,0,0
Diisopropylamine,272.15,1,CC(C)NC(C)C,le15,0,0,0,0
DiisopropylaminoTrimethylSilane,301.15,1,CC(C)N(C(C)C)[Si](C)(C)C,le15,1,1,0,0
Dimethoxymethane,255.0,1,COCOC,le15,0,0,0,0
DimethylChloroSilane-,248.15,1,C[SiH](C)Cl,le15,1,1,0,0
DimethylDiacetoxySilane,310.15,1,CC(=O)O[Si](C)(C)OC(C)=O,le15,1,1,0,0
Dimethyldichlorosilane-,263.15,1,C[Si](C)(Cl)Cl,le15,1,1,0,0
DimethylDiethoxySilane,284.15,1,CCO[Si](C)(C)OCC,le15,1,1,0,0
DimethylDimethoxySilane-,265.15,1,CO[Si](C)(C)OC,le15,1,1,0,0
Dimethylether,232.15,1,COC,le15,0,0,0,0
DimethylolUrea,505.15,1,O=C(NCO)NCO,le15,0,0,0,0
Dimethylsulfide,237.15,1,CSC,le15,0,0,0,0
DimethylVinylChloroSilane-,268.15,1,CC(C)=C[SiH2]Cl,le15,1,1,0,0
Dipentylamine,324.15,1,CCCCCNCCCCC,le15,0,0,0,0
Diphenylamine,425.95,1,c1ccc(Nc2ccccc2)cc1,le15,0,0,0,0
Diphenylether,388.15,1,c1ccc(Oc2ccccc2)cc1,le15,0,0,0,0
DiphenylSilane,371.15,1,c1ccc([SiH2]c2ccccc2)cc1,le15,1,1,0,0
Dipropylamine,290.15,1,CCCNCCC,le15,0,0,0,0
Dipropylether,294.25,1,CCCOCCC,le15,0,0,0,0
DipropylSulfone,399.15,1,CCCS(=O)(=O)CCC,le15,0,0,0,0
Ditertbutylsulfide,321.15,1,CC(C)(C)SC(C)(C)C,le15,0,0,0,0
DivinylDimethylSilane,281.15,1,C=C[Si](C)(C)C=C,le15,1,1,0,0
DodecamethylCyclohexasiloxane,366.15,1,C[Si]1(C)O[Si](C)(C)O[Si](C)(C)O[Si](C)(C)O[Si](C)(C)O[Si](C)(C)O1,le15,1,1,0,0
DodecamethylPentasiloxane,352.15,1,C[Si](C)(C)O[Si](C)(C)O[Si](C)(C)O[Si](C)(C)O[Si](C)(C)C,le15,1,1,0,0
Dodecane,344.15,1,CCCCCCCCCCCC,le15,0,0,0,0
Ethanethiol,256.15,1,CCS,le15,0,0,0,0
ethanol,286.15,1,CCO,le15,0,0,0,0
EthenylBenzene,305.15,1,C=Cc1ccccc1,le15,0,0,0,0
EthoxyBenzene,325.15,1,CCOc1ccccc1,le15,0,0,0,0
EthoxymethylBenzene,332.15,1,CCOCc1ccccc1,le15,0,0,0,0
EthoxyTrimethylSilane-,246.15,1,CCO[Si](C)(C)C,le15,1,1,0,0
Ethyl2trimethylsilylAcetate,308.15,1,CCOC(=O)C[Si](C)(C)C,le15,1,1,0,0
Ethylacetate,270.15,1,CCOC(C)=O,le15,0,0,0,0
Ethylacetoacetate,330.35,1,CCOC(=O)CC(C)=O,le15,0,0,0,0
Ethylacetylglycolate,355.15,1,CCCC(=O)C(O)C(=O)[O-],le15,0,0,0,0
Ethylacrylate,288.75,1,C=CC(=O)OCC,le15,0,0,0,0
Ethylbenzene,288.15,1,CCc1ccccc1,le15,0,0,0,0
Ethylbenzoate,361.15,1,CCOC(=O)c1ccccc1,le15,0,0,0,0
Ethylbromoacetate,320.95,1,CCOC(=O)CBr,le15,0,0,0,0
Ethylbutyrate,297.15,1,CCCC(=O)OCC,le15,0,0,0,0
Ethylchloride,230.15,1,CCCl,le15,0,0,0,0
EthylChloroformate,289.15,1,CCOC(=O)Cl,le15,0,0,0,0
ethylcrotonate,275.35,1,C/C=C/C(=O)OCC,le15,0,0,0,0
Ethylcyanoacetate,383.15,1,CCOC(=O)CC#N,le15,0,0,0,0
ethylcyclohexane,308.15,1,CCC1CCCCC1,le15,0,0,0,0
Ethyldichlorosilane-,264.15,1,CC[SiH](Cl)Cl,le15,1,1,0,0
EthylDimethylChloroSilane-,269.15,1,CC[Si](C)(C)Cl,le15,1,1,0,0
EthylDimethylSilane-,248.15,1,CC[SiH](C)C,le15,1,1,0,0
Ethylformate,253.15,1,CCOC=O,le15,0,0,0,0
EthylIsobutyrate,286.0,1,CCOC(=O)C(C)C,le15,0,0,0,0