compound,flashpoint,pure substance,smiles,source,is_silicon,is_metallic,is_tin,is_acid
DIMETHYL PHTHALATE,419.0,1,COC(=O)c1ccccc1C(=O)OC,didier14,0,0,0,0
DI-n-PROPYL PHTHALATE,433.0,1,CCCOC(=O)c1ccccc1C(=O)OCCC,didier14,0,0,0,0
trans-3-HEXENE,261.1,1,CC/C=C/CC,didier14,0,0,0,0
DIPROPYLENE GLYCOL t-BUTYL ETHER,392.0,1,CC(CO)OCC(C)OC(C)(C)C,didier14,0,0,0,0
1-PENTADECENE,385.0,1,C=CCCCCCCCCCCCCC,didier14,0,0,0,0
trans-2-OCTENE,294.3,1,C/C=C/CCCCC,didier14,0,0,0,0
o-DIETHYLBENZENE,330.4,1,CCc1ccccc1CC,didier14,0,0,0,0
sec-BUTYLBENZENE,325.0,1,CCC(C)c1ccccc1,didier14,0,0,0,0
2-METHYL-1-BUTANOL,316.1,1,CCC(C)CO,didier14,0,0,0,0
ACETOXYACETIC acid,440.0,1,CC(=O)OCC(=O)O,didier14,0,0,0,1
sec-BUTYLAMINE,244.3,1,CCC(C)N,didier14,0,0,0,0
"trans-1,4-DIETHYLCYCLOHEXANE",320.0,1,CC[C@H]1CC[C@H](CC)CC1,didier14,0,0,0,0
DIETHYL MALEATE,366.1,1,CCOC(=O)/C=C\C(=O)OCC,didier14,0,0,0,0
MONOETHANOLAMINE,358.1,1,NCCO,didier14,0,0,0,0
GLYCOL ALDEHYDE,360.0,1,O=CCO,didier14,0,0,0,0
ETHYL ACETATE,269.0,1,CCOC(C)=O,didier14,0,0,0,0
MALONIC acid,496.0,1,O=C(O)CC(=O)O,didier14,0,0,0,1
m-DIETHYLBENZENE,329.0,1,CCc1cccc(CC)c1,didier14,0,0,0,0
ETHYL ACETOACETATE,330.4,1,CCOC(=O)CC(C)=O,didier14,0,0,0,0
"1,3-DICHLOROPROPANE",294.1,1,ClCCCCl,didier14,0,0,0,0
n-HEXANOIC acid,375.0,1,CCCCCC(=O)O,didier14,0,0,0,1
n-HEPTANE,269.0,1,CCCCCCC,didier14,0,0,0,0
DI-n-PROPYLAMINE,290.1,1,CCCNCCC,didier14,0,0,0,0
n-DODECANOIC acid,430.0,1,CCCCCCCCCCCC(=O)O,didier14,0,0,0,1
1-NONANOL,368.0,1,CCCCCCCCCO,didier14,0,0,0,0
n-NONYL ACETATE,372.1,1,CCCCCCCCCOC(C)=O,didier14,0,0,0,0
TRIETHYLENE GLYCOL n-BUTYL ETHER,416.0,1,CCCCOCCOCCOCCO,didier14,0,0,0,0
TETRAETHYLENE GLYCOL DIMETHYL ETHER,414.1,1,COCCOCCOCCOCCOC,didier14,0,0,0,0
"2,2,4-TRIMETHYL-1,3-PENTANEDIOL",383.1,1,CC(C)C(O)C(C)(C)CO,didier14,0,0,0,0
DIMETHYL ISOPHTHALATE,411.1,1,COC(=O)c1cccc(C(=O)OC)c1,didier14,0,0,0,0
trans-2-HEPTENE,272.0,1,C/C=C/CCCC,didier14,0,0,0,0
trans-3-HEPTENE,267.1,1,CC/C=C/CCC,didier14,0,0,0,0
"1,4-DICHLORO-cis-2-BUTENE",323.0,1,ClC/C=C\CCl,didier14,0,0,0,0
8-HYDROXYQUINOLINE,404.0,1,Oc1cccc2cccnc12,didier14,0,0,0,0
cis-3-OCTENE,290.0,1,CC/C=C\CCCC,didier14,0,0,0,0
trans-4-OCTENE,281.0,1,CCC/C=C/CCC,didier14,0,0,0,0
trans-3-OCTENE,282.0,1,CC/C=C/CCCC,didier14,0,0,0,0
"2-METHYL-1,3-PENTANEDIOL",394.0,1,CCC(O)C(C)CO,didier14,0,0,0,0
2-ETHYL HEXANOIC acid,387.1,1,CCCCC(CC)C(=O)O,didier14,0,0,0,1
p-METHOXYPHENOL,398.0,1,COc1ccc(O)cc1,didier14,0,0,0,0
TRI-n-HEPTYL TRIMELLITATE,546.0,1,CCCCCCCOC(=O)c1ccc(C(=O)OCCCCCCC)c(C(=O)OCCCCCCC)c1,didier14,0,0,0,0
TETRAETHYLENE GLYCOL MONOBUTYL ETHER,436.0,1,CCCCOCCOCCOCCOCCO,didier14,0,0,0,0
ETHYLENE GLYCOL 2-ETHYLHEXYL ETHER,383.1,1,CCCCC(CC)COCCO,didier14,0,0,0,0
"cis-1,2-DICHLOROETHYLENE",277.0,1,Cl/C=C\Cl,didier14,0,0,0,0
"trans-1,2-DICHLOROETHYLENE",275.0,1,Cl/C=C/Cl,didier14,0,0,0,0
3-AMINO-1-PROPANOL,352.6,1,NCCCO,didier14,0,0,0,0
PROPYLENE GLYCOL n-PROPYL ETHER,321.1,1,CCCOCC(C)O,didier14,0,0,0,0
1-ETHOXY-2-PROPANOL,315.1,1,CCOCC(C)O,didier14,0,0,0,0
CYCLOHEXYL MERCAPTAN,316.1,1,SC1CCCCC1,didier14,0,0,0,0
METHYL-4-FORMYLBENZOATE,403.0,1,COC(=O)c1ccc(C=O)cc1,didier14,0,0,0,0
3-ETHYLHEPTANE,295.0,1,CCCCC(CC)CC,didier14,0,0,0,0
5-METHYLNONANE,311.0,1,CCCCC(C)CCCC,didier14,0,0,0,0
METHYL tert-BUTYL ETHER,240.2,1,COC(C)(C)C,didier14,0,0,0,0
1-n-BUTYLNAPHTHALENE,401.0,1,CCCCc1cccc2ccccc12,didier14,0,0,0,0
"1,1-DIMETHYLCYCLOPENTANE",257.0,1,CC1(C)CCCC1,didier14,0,0,0,0
n-HEPTYL MERCAPTAN,319.1,1,CCCCCCCS,didier14,0,0,0,0
ETHYLCYCLOPENTANE,269.0,1,CCC1CCCC1,didier14,0,0,0,0
BIS(CYANOETHYL)ETHER,445.0,1,N#CCCOCCC#N,didier14,0,0,0,0
"2,4,4-TRIMETHYLHEXANE",283.0,1,CCC(C)(C)CC(C)C,didier14,0,0,0,0
"2,3,3,4-TETRAMETHYLPENTANE",304.0,1,CC(C)C(C)(C)C(C)C,didier14,0,0,0,0
1-METHYL-1-ETHYLCYCLOPENTANE,279.0,1,CCC1(C)CCCC1,didier14,0,0,0,0
ETHYLCYCLOHEXANE,295.1,1,CCC1CCCCC1,didier14,0,0,0,0
n-PROPYLCYCLOHEXANE,304.0,1,CCCC1CCCCC1,didier14,0,0,0,0
n-BUTYLCYCLOHEXANE,321.0,1,CCCCC1CCCCC1,didier14,0,0,0,0
4-METHYLNONANE,311.0,1,CCCCCC(C)CCC,didier14,0,0,0,0
n-DECYLCYCLOHEXANE,404.0,1,CCCCCCCCCCC1CCCCC1,didier14,0,0,0,0
1-TRIACONTENE,517.0,1,C=CCCCCCCCCCCCCCCCCCCCCCCCCCCCC,didier14,0,0,0,0
2-(2-PENTOXYETHOXY)ETHANOL,383.0,1,CCCCCOCCOCCO,didier14,0,0,0,0
"1,2-BENZENEDICARBOXYLIC acid, HEPTYL, NONYL ESTER",500.0,1,CCCCCCCCCOC(=O)c1ccccc1C(=O)OCCCCCCC,didier14,0,0,0,1
n-BUTYLCYCLOPENTANE,305.0,1,CCCCC1CCCC1,didier14,0,0,0,0
n-PROPYLCYCLOPENTANE,288.0,1,CCCC1CCCC1,didier14,0,0,0,0
DIMERCAPTOETHYL ETHER,371.1,1,SC(S)COCC(S)S,didier14,0,0,0,0
"2-METHYL-1,3-PROPANEDIOL",386.0,1,CC(CO)CO,didier14,0,0,0,0
CHRYSENE,510.0,1,c1ccc2c(c1)ccc1c3ccccc3ccc21,didier14,0,0,0,0
"trans-3,5-DIMETHOXYSTILBENE",489.0,1,COc1cc(/C=C/c2ccccc2)cc(OC)c1,didier14,0,0,0,0
3-METHYLOCTANE,297.0,1,CCCCCC(C)CC,didier14,0,0,0,0
4-METHYLOCTANE,295.0,1,CCCCC(C)CCC,didier14,0,0,0,0
ETHYLENE GLYCOL DIACRYLATE,373.1,1,C=CC(=O)OCCOC(=O)C=C,didier14,0,0,0,0
tert-BUTYLFORMAMIDE,368.1,1,CC(C)(C)NC=O,didier14,0,0,0,0
DIPROPYL MALEATE,391.0,1,CCCOC(=O)/C=C\C(=O)OCCC,didier14,0,0,0,0
AMINOCAPRONITRILE,378.0,1,CCCCC(N)C#N,didier14,0,0,0,0
"BENZENE-1,2,4-TRICARBOXYLIC acid TRIMETHYL ESTER",468.0,1,COC(=O)c1ccc(C(=O)OC)c(C(=O)OC)c1,didier14,0,0,0,1
ACRYLOXY PROPIONIC acid,419.0,1,C=CC(=O)OC(C)C(=O)O,didier14,0,0,0,1
TRIPROPYLENE GLYCOL,413.1,1,CC(O)COC(C)COC(C)CO,didier14,0,0,0,0
DIPROPYLENE GLYCOL,391.0,1,CC(O)COC(C)CO,didier14,0,0,0,0
TRIPROPYLENE GLYCOL MONOMETHYL ETHER,384.0,1,COC(C)COC(C)COC(C)CO,didier14,0,0,0,0
4-HYDROXYBUTYRALDEHYDE,346.0,1,O=CCCCO,didier14,0,0,0,0
ACRIDINE,445.0,1,c1ccc2nc3ccccc3cc2c1,didier14,0,0,0,0
1-n-NONYLNAPHTHALENE,449.0,1,CCCCCCCCCc1cccc2ccccc12,didier14,0,0,0,0
1-n-DECYLNAPHTHALENE,458.0,1,CCCCCCCCCCc1cccc2ccccc12,didier14,0,0,0,0
DIISODECYL PHTHALATE,505.4,1,CC(C)CCCCCCCOC(=O)c1ccccc1C(=O)OCCCCCCCC(C)C,didier14,0,0,0,0
DIISOOCTYL PHTHALATE,504.0,1,CC(C)CCCCCOC(=O)c1ccccc1C(=O)OCCCCCC(C)C,didier14,0,0,0,0
1-n-PROPYLNAPHTHALENE,387.0,1,CCCc1cccc2ccccc12,didier14,0,0,0,0
ETHYLENE GLYCOL MONOPROPYL ETHER,322.1,1,CCCOCCO,didier14,0,0,0,0
ADAMANTANE,316.0,1,C1C2CC3CC1CC(C2)C3,didier14,0,0,0,0
DIISONONYL PHTHALATE,489.0,1,CC(C)CCCCCCOC(=O)c1ccccc1C(=O)OCCCCCCC(C)C,didier14,0,0,0,0
1-n-HEXYLNAPHTHALENE,425.0,1,CCCCCCc1cccc2ccccc12,didier14,0,0,0,0
CYCLOPENTANE,233.0,1,C1CCCC1,didier14,0,0,0,0
PYRIDAZINE,358.1,1,c1ccnnc1,didier14,0,0,0,0
DIPROPYLENE GLYCOL n-PROPYL ETHER,370.9,1,CCCOC(C)COC(C)CO,didier14,0,0,0,0
DIPROPYLENE GLYCOL MONOETHYL ETHER,364.0,1,CCOC(C)COC(C)CO,didier14,0,0,0,0
4-HYDROXYMETHYL BENZOIC acid,495.0,1,O=C(O)c1ccc(CO)cc1,didier14,0,0,0,1
HYDRAZINE,311.0,1,NN,didier14,0,0,0,0
"1,2,4-BUTANETRIOL",440.0,1,OCCC(O)CO,didier14,0,0,0,0
ETHYLBENZENE HYDROPEROXIDE,414.0,1,CCc1ccccc1.[O-]O,didier14,0,0,0,0
2-METHYLOCTANE,296.0,1,CCCCCCC(C)C,didier14,0,0,0,0
n-DECANOIC acid,412.0,1,CCCCCCCCCC(=O)O,didier14,0,0,0,1
3-METHYL-1-HEXENE,267.1,1,C=CC(C)CCC,didier14,0,0,0,0
DIPROPYLENE GLYCOL MONOMETHYL ETHER,347.1,1,COC(C)COC(C)CO,didier14,0,0,0,0
"2,2,5-TRIMETHYLHEXANE",286.0,1,CC(C)CCC(C)(C)C,didier14,0,0,0,0
DI-n-UNDECYL PHTHALATE,535.0,1,CCCCCCCCCCCOC(=O)c1ccccc1C(=O)OCCCCCCCCCCC,didier14,0,0,0,0
DI-n-HEPTYL PHTHALATE,485.0,1,CCCCCCCOC(=O)c1ccccc1C(=O)OCCCCCCC,didier14,0,0,0,0
"1,2,3,4-TETRAMETHYLCYCLOHEXANE",319.0,1,CC1CCC(C)C(C)C1C,didier14,0,0,0,0
6-AMINOHEXANAMIDE,444.0,1,NCCCCCC(N)=O,didier14,0,0,0,0
3-HYDROXY-2-METHYL PROPIONALDEHYDE,352.0,1,CC(C=O)CO,didier14,0,0,0,0
ISOPROPYLCYCLOPENTANE,283.0,1,CC(C)C1CCCC1,didier14,0,0,0,0
1-ISOPROPOXY-2-PROPANOL,309.0,1,CC(O)COC(C)C,didier14,0,0,0,0
ALLYL-TERT-BUTYLPEROXIDE,286.0,1,C=CCOOC(C)(C)C,didier14,0,0,0,0
6-AMINOHEXANOL,390.0,1,NCCCCCCO,didier14,0,0,0,0
"N,N'-DI-tert-BUTYLETHYLENEDIAMINE",334.0,1,CC(C)(C)NCCNC(C)(C)C,didier14,0,0,0,0
CYCLOHEXYL FORMATE,324.1,1,O=COC1CCCCC1,didier14,0,0,0,0
"1,2,3-BUTANETRIOL",474.0,1,CC(O)C(O)CO,didier14,0,0,0,0
CYANOGEN,204.0,1,N#CC#N,didier14,0,0,0,0
"1,5-PENTANEDIAMINE",335.1,1,NCCCCCN,didier14,0,0,0,0
DI-n-OCTYL TEREPHTHALATE,507.0,1,CCCCCCCCOC(=O)c1ccc(C(=O)OCCCCCCCC)cc1,didier14,0,0,0,0
n-BUTYLHYDROPEROXIDE,325.0,1,CCCCOO,didier14,0,0,0,0
"1,2,3,4-TETRAMETHYLBENZENE",341.1,1,Cc1ccc(C)c(C)c1C,didier14,0,0,0,0
CITRACONIC acid,493.0,1,C/C(=C/C(=O)O)C(=O)O,didier14,0,0,0,1
FORMALDEHYDE,206.0,1,C=O,didier14,0,0,0,0
LACTIC acid,410.0,1,CC(O)C(=O)O,didier14,0,0,0,1
5-NONANONE,333.1,1,CCCCC(=O)CCCC,didier14,0,0,0,0
ISOVALERIC acid,350.0,1,CC(C)CC(=O)O,didier14,0,0,0,1
SUBERIC acid,489.0,1,O=C(O)CCCCCCC(=O)O,didier14,0,0,0,1
ACETYLSALICYLIC acid,436.0,1,CC(=O)Oc1ccccc1C(=O)O,didier14,0,0,0,1
2-METHYL-2-BUTENE,228.2,1,CC=C(C)C,didier14,0,0,0,0
ISOBUTYL MERCAPTAN,264.1,1,CC(C)CS,didier14,0,0,0,0
"2,3-BUTANEDIOL",358.1,1,CC(O)C(C)O,didier14,0,0,0,0
"1,2,3-TRIMETHYLBENZENE",317.1,1,Cc1cccc(C)c1C,didier14,0,0,0,0
"2,3-XYLENOL",365.0,1,Cc1cccc(O)c1C,didier14,0,0,0,0
TRIMELLITIC acid,550.0,1,O=C(O)c1ccc(C(=O)O)c(C(=O)O)c1,didier14,0,0,0,1
"1,1-DIMETHOXYETHANE",256.1,1,COC(C)OC,didier14,0,0,0,0
n-PENTYLBENZENE,338.1,1,CCCCCc1ccccc1,didier14,0,0,0,0
AMINOACETONITRILE,339.0,1,N#CCN,didier14,0,0,0,0
"1,2-ETHANEDITHIOL",317.1,1,SCCS,didier14,0,0,0,0
m-DICHLOROBENZENE,345.0,1,Clc1cccc(Cl)c1,didier14,0,0,0,0
ETHYLIDENE DIACETATE,337.0,1,CC(=O)OC(C)OC(C)=O,didier14,0,0,0,0
ISOBUTYL FORMATE,277.0,1,CC(C)COC=O,didier14,0,0,0,0
2-HEPTANOL,332.1,1,CCCCCC(C)O,didier14,0,0,0,0
1-CHLOROPENTANE,286.0,1,CCCCCCl,didier14,0,0,0,0
GLUTARONITRILE,417.0,1,N#CCCCC#N,didier14,0,0,0,0
n-HEXADECANE,408.1,1,CCCCCCCCCCCCCCCC,didier14,0,0,0,0
METHYL ISOBUTYRATE,276.1,1,COC(=O)C(C)C,didier14,0,0,0,0
METHYL LACTATE,322.1,1,COC(=O)C(C)O,didier14,0,0,0,0
PROPYLENE GLYCOL ETHYL ETHER ACETATE,327.0,1,CCOCC(C)OC(C)=O,didier14,0,0,0,0
BENZAMIDE,430.0,1,NC(=O)c1ccccc1,didier14,0,0,0,0
METHYL PROPIONATE,271.0,1,CCC(=O)OC,didier14,0,0,0,0
"3,3-DIMETHYL-1-BUTENE",245.2,1,C=CC(C)(C)C,didier14,0,0,0,0
"2,3,3-TRIMETHYLPENTANE",273.0,1,CCC(C)(C)C(C)C,didier14,0,0,0,0
3-METHYL-1-BUTENE,217.2,1,C=CC(C)C,didier14,0,0,0,0
"2,3-DIMETHYL-2-BUTENE",257.1,1,CC(C)=C(C)C,didier14,0,0,0,0
METHYL ISOPROPYL KETONE,279.1,1,CC(=O)C(C)C,didier14,0,0,0,0
"2,2,3-TRIMETHYLPENTANE",270.0,1,CCC(C)C(C)(C)C,didier14,0,0,0,0
BENZANTHRACENE,508.0,1,c1ccc2cc3c(ccc4ccccc43)cc2c1,didier14,0,0,0,0
3-METHYL-2-PENTANONE,285.1,1,CCC(C)C(C)=O,didier14,0,0,0,0
ETHYL ISOPROPYL KETONE,286.1,1,CCC(=O)C(C)C,didier14,0,0,0,0
"2,3,4-TRIMETHYLPENTANE",273.0,1,CC(C)C(C)C(C)C,didier14,0,0,0,0
DIISOPROPYL KETONE,288.1,1,CC(C)C(=O)C(C)C,didier14,0,0,0,0
n-OCTADECANOIC acid,476.1,1,CCCCCCCCCCCCCCCCCC(=O)O,didier14,0,0,0,1
"1,2-PROPYLENE GLYCOL",372.0,1,CC(O)CO,didier14,0,0,0,0
"2,6-XYLENOL",346.1,1,Cc1cccc(C)c1O,didier14,0,0,0,0
"2,6-DIMETHYLNAPHTHALENE",381.0,1,Cc1ccc2cc(C)ccc2c1,didier14,0,0,0,0
"2,7-DIMETHYLNAPHTHALENE",382.0,1,Cc1ccc2ccc(C)cc2c1,didier14,0,0,0,0
"3,4-DIMETHYLHEXANE",277.0,1,CCC(C)C(C)CC,didier14,0,0,0,0
3-PENTANOL,300.0,1,CCC(O)CC,didier14,0,0,0,0
"1,2-BUTANEDIOL",363.1,1,CCC(O)CO,didier14,0,0,0,0
METHOXYACETONE,293.0,1,COCC(C)=O,didier14,0,0,0,0
1-tert-BUTOXY-2-[2-(HYDROXY)PROPOXY]PROPANE,400.0,1,CC(O)COC(C)COC(C)(C)C,didier14,0,0,0,0
3-METHYL-1-PENTANOL,331.1,1,CCC(C)CCO,didier14,0,0,0,0
"2,4-DIMETHYLHEXANE",283.1,1,CCC(C)CC(C)C,didier14,0,0,0,0
4-METHYLHEPTANE,279.1,1,CCCC(C)CCC,didier14,0,0,0,0
3-METHYLHEPTANE,279.0,1,CCCCC(C)CC,didier14,0,0,0,0
n-BUTYL PROPIONATE,305.4,1,CCCCOC(=O)CC,didier14,0,0,0,0
"1,1-DIMETHYLCYCLOHEXANE",276.0,1,CC1(C)CCCCC1,didier14,0,0,0,0
1-METHYLCYCLOHEXANOL,338.1,1,CC1(O)CCCCC1,didier14,0,0,0,0
3-METHYLNONANE,311.0,1,CCCCCCC(C)CC,didier14,0,0,0,0
2-HEXANONE,296.1,1,CCCCC(C)=O,didier14,0,0,0,0
ALLYL ACETATE,295.4,1,C=CCOC(C)=O,didier14,0,0,0,0
"2,5-DIMETHYLHEXANE",271.0,1,CC(C)CCC(C)C,didier14,0,0,0,0
2-METHYLHEPTANE,277.1,1,CCCCCC(C)C,didier14,0,0,0,0
1-HEXENE,242.0,1,C=CCCCC,didier14,0,0,0,0
1-HEPTENE,265.1,1,C=CCCCCC,didier14,0,0,0,0
n-HEPTACOSANE,475.0,1,CCCCCCCCCCCCCCCCCCCCCCCCCCC,didier14,0,0,0,0
alpha-HYDROXYISOBUTYRIC acid,396.0,1,CC(C)(O)C(=O)O,didier14,0,0,0,1
NEOHEXANOIC acid,352.1,1,CC(C)(C)CC(=O)O,didier14,0,0,0,1
3-METHYL-2-BUTANOL,299.1,1,CC(C)C(C)O,didier14,0,0,0,0
"2,6-DIETHYLNAPHTHALENE",410.0,1,CCc1ccc2cc(CC)ccc2c1,didier14,0,0,0,0
p-AMINOAZOBENZENE,466.0,1,Nc1ccc(N=Nc2ccccc2)cc1,didier14,0,0,0,0
2-MERCAPTOETHANOL,340.1,1,OCCS,didier14,0,0,0,0
DIETHYL ETHER,228.2,1,CCOCC,didier14,0,0,0,0
2-PENTANOL,307.0,1,CCCC(C)O,didier14,0,0,0,0
ACETAMIDE,398.0,1,CC(N)=O,didier14,0,0,0,0
1-PHENYLNAPHTHALENE,435.0,1,c1ccc(-c2cccc3ccccc23)cc1,didier14,0,0,0,0
"2,6-DINITROTOLUENE",417.0,1,Cc1c([N+](=O)[O-])cccc1[N+](=O)[O-],didier14,0,0,0,0
2-METHYL-1-HEXENE,267.1,1,C=C(C)CCCC,didier14,0,0,0,0
"3,4-DINITROTOLUENE",453.0,1,Cc1ccc([N+](=O)[O-])c([N+](=O)[O-])c1,didier14,0,0,0,0
o-ETHYLTOLUENE,312.1,1,CCc1ccccc1C,didier14,0,0,0,0
"cis-2-BUTENE-1,4-DIOL",401.1,1,OC/C=C\CO,didier14,0,0,0,0
"1,2-DICHLOROBUTANE",297.0,1,CCC(Cl)CCl,didier14,0,0,0,0
"2,3-DICHLORO-1-PROPANOL",365.0,1,OCC(Cl)CCl,didier14,0,0,0,0
METHYL t-BUTYL SULFIDE,270.1,1,CSC(C)(C)C,didier14,0,0,0,0
DIMETHYL CARBONATE,289.9,1,COC(=O)OC,didier14,0,0,0,0
m-CHLOROBENZOYL CHLORIDE,372.0,1,O=C(Cl)c1cccc(Cl)c1,didier14,0,0,0,0
"3,5-DINITROTOLUENE",443.0,1,Cc1cc([N+](=O)[O-])cc([N+](=O)[O-])c1,didier14,0,0,0,0
"2,5-DINITROTOLUENE",438.0,1,Cc1cc([N+](=O)[O-])ccc1[N+](=O)[O-],didier14,0,0,0,0
2-PENTOXYETHANOL,347.0,1,CCCCCOCCO,didier14,0,0,0,0
4-CARBOXYBENZALDEHYDE,548.0,1,O=Cc1ccc(C(=O)O)cc1,didier14,0,0,0,0
"1,4-CYCLOHEXANEDICARBOXYLIC acid",508.1,1,O=C(O)C1CCC(C(=O)O)CC1,didier14,0,0,0,1
3-ETHYLHEXANE,279.0,1,CCCC(CC)CC,didier14,0,0,0,0
m-ETHYLTOLUENE,311.1,1,CCc1cccc(C)c1,didier14,0,0,0,0
CYCLOHEXYL ACETATE,330.1,1,CC(=O)OC1CCCCC1,didier14,0,0,0,0
p-ETHYLTOLUENE,309.1,1,CCc1ccc(C)cc1,didier14,0,0,0,0
METHYL n-BUTYRATE,287.0,1,CCCC(=O)OC,didier14,0,0,0,0
DIMETHYL MALEATE,386.1,1,COC(=O)/C=C\C(=O)OC,didier14,0,0,0,0
METHYL ETHYL SULFIDE,258.1,1,CCSC,didier14,0,0,0,0
ANILINE,343.1,1,Nc1ccccc1,didier14,0,0,0,0
METHOXYACETIC acid,388.0,1,COCC(=O)O,didier14,0,0,0,1
"2,4-PENTANEDIOL",374.1,1,CC(O)CC(C)O,didier14,0,0,0,0
2-HEXANOL,319.3,1,CCCCC(C)O,didier14,0,0,0,0
1-NITROBUTANE,320.1,1,CCCC[N+](=O)[O-],didier14,0,0,0,0
1-CHLORO-3-PROPANOL,346.1,1,OCCCCl,didier14,0,0,0,0
HEXANAMIDE,410.0,1,CCCCCC(N)=O,didier14,0,0,0,0
METHYL n-BUTYL SULFIDE,289.0,1,CCCCSC,didier14,0,0,0,0
ETHYL PROPYL ETHER,247.0,1,CCCOCC,didier14,0,0,0,0
n-PENTYL ACETATE,296.1,1,CCCCCOC(C)=O,didier14,0,0,0,0
HEXANENITRILE,320.0,1,CCCCCC#N,didier14,0,0,0,0
"2,2'-IMINOBIS-ACETONITRILE",413.0,1,N#CCNCC#N,didier14,0,0,0,0
"1,2-DIETHOXYETHANE",300.1,1,CCOCCOCC,didier14,0,0,0,0
n-TRIDECANE,352.0,1,CCCCCCCCCCCCC,didier14,0,0,0,0
n-TETRADECANE,373.1,1,CCCCCCCCCCCCCC,didier14,0,0,0,0
1-HEXADECENE,405.1,1,C=CCCCCCCCCCCCCCC,didier14,0,0,0,0
n-HEPTADECANE,421.1,1,CCCCCCCCCCCCCCCCC,didier14,0,0,0,0
n-NONADECANE,441.0,1,CCCCCCCCCCCCCCCCCCC,didier14,0,0,0,0
n-OCTACOSANE,475.0,1,CCCCCCCCCCCCCCCCCCCCCCCCCCCC,didier14,0,0,0,0
n-NONACOSANE,475.0,1,CCCCCCCCCCCCCCCCCCCCCCCCCCCCC,didier14,0,0,0,0
"1,1,1,2-TETRACHLOROETHANE",334.0,1,ClCC(Cl)(Cl)Cl,didier14,0,0,0,0
n-TRIACONTANE,475.0,1,CCCCCCCCCCCCCCCCCCCCCCCCCCCCCC,didier14,0,0,0,0
ETHANOL,286.0,1,CCO,didier14,0,0,0,0
ACETIC acid,316.0,1,CC(=O)O,didier14,0,0,0,1
cis-2-HEPTENE,265.0,1,C/C=C\CCCC,didier14,0,0,0,0
trans-2-PENTENE,225.0,1,C/C=C/CC,didier14,0,0,0,0
n-NONYL n-UNDECYL PHTHALATE,524.0,1,CCCCCCCCCCCOC(=O)c1ccccc1C(=O)OCCCCCCCCC,didier14,0,0,0,0
BENZOIC acid,394.3,1,O=C(O)c1ccccc1,didier14,0,0,0,1
HEXANAL,300.0,1,CCCCCC=O,didier14,0,0,0,0
METHANOL,284.0,1,CO,didier14,0,0,0,0
ISOPROPANOL,285.1,1,CC(C)O,didier14,0,0,0,0
THIOGLYCOLIC acid,398.0,1,O=C(O)CS,didier14,0,0,0,1
"N,N-DIMETHYLFORMAMIDE",331.0,1,CN(C)C=O,didier14,0,0,0,0
"2,2,4-TRIMETHYL-1,3-PENTANEDIOL DIISOBUTYRATE",394.0,1,CC(C)C(=O)OCC(C)(C)C(OC(=O)C(C)C)C(C)C,didier14,0,0,0,0
DIETHYLENE GLYCOL MONOPROPYL ETHER,372.0,1,CCCOCCOCCO,didier14,0,0,0,0
MALIC acid,515.0,1,O=C(O)CC(O)C(=O)O,didier14,0,0,0,1
ISOPROPYLCYCLOHEXANE,308.1,1,CC(C)C1CCCCC1,didier14,0,0,0,0
SALICYLIC acid,430.0,1,O=C(O)c1ccccc1O,didier14,0,0,0,1
"1,3-DIMETHYLADAMANTANE",325.1,1,CC12CC3CC(C1)CC(C)(C3)C2,didier14,0,0,0,0
sec-BUTYLCYCLOHEXANE,319.0,1,CCC(C)C1CCCCC1,didier14,0,0,0,0
1-PROPANOL,291.0,1,CCCO,didier14,0,0,0,0
DICYCLOHEXYL SULFIDE,393.0,1,C1CCC(SC2CCCCC2)CC1,didier14,0,0,0,0
1-BUTANOL,306.0,1,CCCCO,didier14,0,0,0,0
1-PENTANOL,320.0,1,CCCCCO,didier14,0,0,0,0
BENZENE,262.0,1,c1ccccc1,didier14,0,0,0,0
"2,2,3,3-TETRAMETHYLPENTANE",289.0,1,CCC(C)(C)C(C)(C)C,didier14,0,0,0,0
"3,3,5-TRIMETHYLHEPTANE",301.0,1,CCC(C)CC(C)(C)CC,didier14,0,0,0,0
"2,2',2''-NITRILOTRIS-ACETONITRILE",487.0,1,N#CCN(CC#N)CC#N,didier14,0,0,0,0
ETHANE,138.2,1,CC,didier14,0,0,0,0
ETHYLENE,124.0,1,C=C,didier14,0,0,0,0
METHYLAMINE,215.0,1,CN,didier14,0,0,0,0
PROPANE,169.2,1,CCC,didier14,0,0,0,0
ACETONITRILE,275.1,1,CC#N,didier14,0,0,0,0
ACETALDEHYDE,235.0,1,CC=O,didier14,0,0,0,0
DIMETHYL SULFIDE,237.2,1,CSC,didier14,0,0,0,0
ISOPROPYL CHLORIDE,238.2,1,CC(C)Cl,didier14,0,0,0,0
ISOPROPYLAMINE,236.2,1,CC(C)N,didier14,0,0,0,0
ISOPROPYL MERCAPTAN,238.2,1,CC(C)S,didier14,0,0,0,0
"1,1-DICHLOROETHANE",261.1,1,CC(Cl)Cl,didier14,0,0,0,0
"1,1-DICHLOROETHYLENE",251.2,1,C=C(Cl)Cl,didier14,0,0,0,0
NITROMETHANE,308.1,1,C[N+](=O)[O-],didier14,0,0,0,0
2-METHYL-2-PROPANOL,284.3,1,CC(C)(C)O,didier14,0,0,0,0
"2,3-DICHLOROBUTANE",291.1,1,CC(Cl)C(C)Cl,didier14,0,0,0,0
2-METHYL-2-BUTANOL,293.1,1,CCC(C)(C)O,didier14,0,0,0,0
ACETONE CYANOHYDRIN,336.1,1,CC(C)(O)C#N,didier14,0,0,0,0
TRICHLOROACETALDEHYDE,323.0,1,O=CC(Cl)(Cl)Cl,didier14,0,0,0,0
TRIPROPYLENE GLYCOL MONOETHYL ETHER,405.0,1,CCOC(C)COC(C)COC(C)CO,didier14,0,0,0,0
t-BUTYL HYDROPEROXIDE,299.8,1,CC(C)(C)OO,didier14,0,0,0,0
"3,3-DIMETHYL-2-BUTANONE",285.1,1,CC(=O)C(C)(C)C,didier14,0,0,0,0
3-METHYL-1-PENTENE,245.2,1,C=CC(C)CC,didier14,0,0,0,0
"3,4-DICHLORO-1-BUTENE",301.1,1,C=CC(Cl)CCl,didier14,0,0,0,0
ETHYL-3-ETHOXYPROPIONATE,331.1,1,CCOCCC(=O)OCC,didier14,0,0,0,0
cis-2-OCTENE,294.0,1,C/C=C\CCCCC,didier14,0,0,0,0
cis-4-OCTENE,290.0,1,CCC/C=C\CCC,didier14,0,0,0,0
CYCLOHEXYL PEROXIDE,381.0,1,C1CCC(OOC2CCCCC2)CC1,didier14,0,0,0,0
3-METHYL-3-PENTANOL,297.1,1,CCC(C)(O)CC,didier14,0,0,0,0
"1,2-DIMETHOXYPROPANE",273.7,1,COCC(C)OC,didier14,0,0,0,0
CITRIC acid,549.0,1,O=C(O)CC(O)(CC(=O)O)C(=O)O,didier14,0,0,0,1
TRIMETHYLOLPROPANE,445.1,1,CCC(CO)(CO)CO,didier14,0,0,0,0
"1,1-DIETHYLCYCLOHEXANE",322.1,1,CCC1(CC)CCCCC1,didier14,0,0,0,0
ISOBUTYLAMINE,255.3,1,CC(C)CN,didier14,0,0,0,0
ISOBUTYRONITRILE,281.5,1,CC(C)C#N,didier14,0,0,0,0
2-METHYL-1-PROPANOL,301.0,1,CC(C)CO,didier14,0,0,0,0
sec-BUTYL CHLORIDE,244.0,1,CCC(C)Cl,didier14,0,0,0,0
"1,2-DICHLOROPROPANE",286.1,1,CC(Cl)CCl,didier14,0,0,0,0
"2,3-DICHLOROPROPENE",283.1,1,C=C(Cl)CCl,didier14,0,0,0,0
"1,2-PROPANEDIAMINE",306.1,1,CC(N)CN,didier14,0,0,0,0
2-BUTANOL,296.1,1,CCC(C)O,didier14,0,0,0,0
1-AMINO-2-PROPANOL,347.0,1,CC(O)CN,didier14,0,0,0,0
LACTONITRILE,350.1,1,CC(O)C#N,didier14,0,0,0,0
N-METHYLACETAMIDE,381.1,1,CNC(C)=O,didier14,0,0,0,0
METHYL ACETATE,263.1,1,COC(C)=O,didier14,0,0,0,0
PERACETIC acid,313.1,1,CC(=O)OO,didier14,0,0,0,1
METHYL CHLOROFORMATE,285.1,1,COC(=O)Cl,didier14,0,0,0,0
NITROETHANE,301.0,1,CC[N+](=O)[O-],didier14,0,0,0,0
ISOBUTYRIC acid,329.1,1,CC(C)C(=O)O,didier14,0,0,0,1
DICHLOROACETYL CHLORIDE,339.0,1,O=C(Cl)C(Cl)Cl,didier14,0,0,0,0
DICHLOROACETIC acid,383.1,1,O=C(O)C(Cl)Cl,didier14,0,0,0,1
2-NITROPROPANE,297.1,1,CC(C)[N+](=O)[O-],didier14,0,0,0,0
BISPHENOL A,480.1,1,CC(C)(c1ccc(O)cc1)c1ccc(O)cc1,didier14,0,0,0,0
CUMENE HYDROPEROXIDE,322.0,1,CC(C)c1ccccc1.[O-]O,didier14,0,0,0,0
p-MENTHANE HYDROPEROXIDE,404.0,1,CC1CCC(C(C)C)CC1.[O-]O,didier14,0,0,0,0
2-HYDROXYETHYL ACRYLATE,371.1,1,C=CC(=O)OCCO,didier14,0,0,0,0
"trans-2-BUTENE-1,4-DIOL",401.1,1,OC/C=C/CO,didier14,0,0,0,0
2-NONANONE,337.1,1,CCCCCCCC(C)=O,didier14,0,0,0,0
"2,6-DIAMINOTOLUENE",419.0,1,Cc1c(N)cccc1N,didier14,0,0,0,0
CYCLOHEXYLBENZENE,372.0,1,c1ccc(C2CCCCC2)cc1,didier14,0,0,0,0
"DIMETHYL-2,6-NAPHTHALENEDICARBOXYLATE",479.0,1,COC(=O)c1ccc2cc(C(=O)OC)ccc2c1,didier14,0,0,0,0
o-TERPHENYL,436.0,1,c1ccc(-c2ccccc2-c2ccccc2)cc1,didier14,0,0,0,0
ANTHRAQUINONE,458.1,1,O=C1c2ccccc2C(=O)c2ccccc21,didier14,0,0,0,0