compound,flashpoint,pure substance,smiles,source,is_silicon,is_metallic,is_tin,is_acid
tetraethylsilane,299.25,1,CC[Si](CC)(CC)CC,le15,1,1,0,0
"Acetonitrile, trichloro-",283.65,1,N#CC(Cl)(Cl)Cl,le15,0,0,0,0
"1,3-Benzenediol, 4-chloro-",394.75,1,Oc1ccc(Cl)c(O)c1,le15,0,0,0,0
"1,4-Benzenediol, 2-chloro-",392.85,1,Oc1ccc(O)c(Cl)c1,le15,0,0,0,0
"1,2-Benzenediol, 4-chloro-",388.45,1,Oc1ccc(Cl)cc1O,le15,0,0,0,0
"Toluene, alpha-chloro-p-fluoro- (8CI)",338.15,1,Fc1ccc(CCl)cc1,le15,0,0,0,0
1-chloro-3-fluoro-2-methylbenzene,320.85,1,Cc1c(F)cccc1Cl,le15,0,0,0,0
(E)-1-chloro-3-ethylpent-1-en-4-yn-3-ol,341.55,1,C#CC(O)(/C=C/Cl)CC,le15,0,0,0,0
4-chlorobenzenethiol,351.75,1,Sc1ccc(Cl)cc1,le15,0,0,0,0
3-chlorobenzenethiol,363.15,1,Sc1cccc(Cl)c1,le15,0,0,0,0
2-chlorobenzenethiol,361.45,1,Sc1ccccc1Cl,le15,0,0,0,0
"Thiazole, 2-amino-5-nitro-",435.65,1,Nc1ncc([N+](=O)[O-])s1,le15,0,0,0,0
8-Hydroxyquinoline,416.25,1,Oc1cccc2cccnc12,le15,0,0,0,0
5-Hydroxyquinoline,474.85,1,Oc1cccc2ncccc12,le15,0,0,0,0
7-Hydroxyquinoline,416.22,1,Oc1ccc2cccnc2c1,le15,0,0,0,0
4-Hydroxyquinoline,395.45,1,Oc1ccnc2ccccc12,le15,0,0,0,0
"Quinoline, 1-oxide, dihydrate",408.35,1,O.O.[O-][n+]1cccc2ccccc21,le15,0,0,0,0
6-Hydroxyquinoline,416.25,1,Oc1ccc2ncccc2c1,le15,0,0,0,0
"2,3-dimethyl-1H-indole",393.95,1,Cc1[nH]c2ccccc2c1C,le15,0,0,0,0
2-phenylbutanenitrile,378.15,1,CCC(C#N)c1ccccc1,le15,0,0,0,0
"Butyronitrile, 4-phenyl- (8CI)",404.85,1,N#CCCCc1ccccc1,le15,0,0,0,0
ethyl N-butylcarbamate,350.65,1,CCCCNC(=O)OCC,le15,0,0,0,0
"Heptanoic acid, 7-amino-",390.65,1,NCCCCCCC(=O)O,le15,0,0,0,1
"Ethanol, 2-(bis(1-methylethyl)amino)-",343.15,1,CC(C)N(CCO)C(C)C,le15,0,0,0,0
2-(dipropylamino)ethanol,338.75,1,CCCN(CCC)CCO,le15,0,0,0,0
"1,3-Propanediamine, N-(3-aminopropyl)-N-methyl-",375.95,1,CN(CCCN)CCCN,le15,0,0,0,0
"1-Propene, 1,2,3-trichloro-",338.65,1,ClC=C(Cl)CCl,le15,0,0,0,0
"1,1,2-trichloroprop-1-ene",314.95,1,CC(Cl)=C(Cl)Cl,le15,0,0,0,0
"3,3,3-trichloroprop-1-ene",310.85,1,C=CC(Cl)(Cl)Cl,le15,0,0,0,0
"s-Triazine, 2,4-diamino-6-chloro- (8CI)",522.05,1,Nc1nc(N)nc(Cl)n1,le15,0,0,0,0
3-chloro-4-fluoroaniline,422.15,1,Nc1ccc(F)c(Cl)c1,le15,0,0,0,0
"2,2,3,3-tetrafluoropropanoic acid",312.05,1,O=C(O)C(F)(F)C(F)F,le15,0,0,0,1
"1-ethoxy-1,1,2,2-tetrafluoroethane",330.15,1,CCOC(F)(F)C(F)F,le15,0,0,0,0
"Toluene, alpha,alpha,alpha-trifluoro-",285.15,1,FC(F)(F)c1ccccc1,le15,0,0,0,0
2H-1-Benzopyran-2-one,435.15,1,O=c1ccc2ccccc2o1,le15,0,0,0,0
isochromen-1-one,376.65,1,O=c1occc2ccccc12,le15,0,0,0,0
"Ethanedioic acid, 1,2-diethyl ester",349.15,1,CCOC(=O)C(=O)OCC,le15,0,0,0,1
"Butanedioic acid, dimethyl ester",361.55,1,COC(=O)CCC(=O)OC,le15,0,0,0,1
"Ethylene glycol, diacetate",355.15,1,CC(=O)OCCOC(C)=O,le15,0,0,0,0
1(2H)-Phthalazinone,483.05,1,O=c1[nH]ncc2ccccc12,le15,0,0,0,0
Hexanedioic acid,445.895,1,O=C(O)CCCCC(=O)O,le15,0,0,0,1
4-Hydroxyquinazoline,410.45,1,Oc1ncnc2ccccc12,le15,0,0,0,0
1-acetyloxyethyl acetate,351.35,1,CC(=O)OC(C)OC(C)=O,le15,0,0,0,0
dimethyl 2-methylpropanedioate,349.25,1,COC(=O)C(C)C(=O)OC,le15,0,0,0,0
"1,3,4-Oxadiazole, 2-phenyl-",384.15,1,c1ccc(-c2nnco2)cc1,le15,0,0,0,0
"Benzamide, p-cyano- (8CI)",438.75,1,N#Cc1ccc(C(N)=O)cc1,le15,0,0,0,0
1-fluoronaphthalene,338.75,1,Fc1cccc2ccccc12,le15,0,0,0,0
2-fluoronaphthalene,338.55,1,Fc1ccc2ccccc2c1,le15,0,0,0,0
"4-Thiazolecarboxylic acid, 2-amino-4,5-dihydro-",472.45,1,NC1=NC(C(=O)O)CS1,le15,0,0,0,1
"3-Buten-2-one, 4-phenyl-",338.75,1,CC(=O)C=Cc1ccccc1,le15,0,0,0,0
"Benzenemethanol, alpha-ethynyl-alpha-methyl-",369.15,1,C#CC(C)(O)c1ccccc1,le15,0,0,0,0
"1,2,3,4-Tetrahydronaphthalen-1-one",377.75,1,O=C1CCCc2ccccc21,le15,0,0,0,0
(E)-4-phenylbut-3-en-2-one,338.75,1,CC(=O)/C=C/c1ccccc1,le15,0,0,0,0
"4,7-dimethyl-1-benzofuran",359.55,1,Cc1ccc(C)c2occc12,le15,0,0,0,0
"2-Propenal, 2-methyl-3-phenyl-",363.45,1,CC(C=O)=Cc1ccccc1,le15,0,0,0,0
"5,6-dimethyl-1-benzofuran",361.85,1,Cc1cc2ccoc2cc1C,le15,0,0,0,0
"Propanoic acid, 2-hydroxy-, butyl ester",344.15,1,CCCCOC(=O)C(C)O,le15,0,0,0,1
"Pyridine, 3-(3,4-dihydro-2H-pyrrol-5-yl)- (9CI)",374.95,1,c1cncc(C2=NCCC2)c1,le15,0,0,0,0
dipropyl carbonate,328.15,1,CCCOC(=O)OCCC,le15,0,0,0,0
"Propanoic acid, 3-ethoxy-, ethyl ester",325.35,1,CCOCCC(=O)OCC,le15,0,0,0,1
"Propanenitrile, 3-(phenylamino)-",426.05,1,N#CCCNc1ccccc1,le15,0,0,0,0
4-(dimethylamino)benzonitrile,418.55,1,CN(C)c1ccc(C#N)cc1,le15,0,0,0,0
"m-Dioxane-4-ethanol, 4-methyl-",374.65,1,CC1(CCO)CCOCO1,le15,0,0,0,0
"1-Butanol, 3-methoxy-, acetate",329.05,1,COC(C)CCOC(C)=O,le15,0,0,0,0
"2-Propenal, phenylhydrazone (9CI)",375.25,1,C=CC=NNc1ccccc1,le15,0,0,0,0
"2,6-dimethyl-1H-benzimidazole",459.764,1,Cc1ccc2nc(C)[nH]c2c1,le15,0,0,0,0
"(2S)-2,6-diaminohexanoic acid",415.35,1,NCCCC[C@H](N)C(=O)O,le15,0,0,0,1
DL-Lysine,415.366,1,NCCCCC(N)C(=O)O,le15,0,0,0,0
"2-Propenoic acid, 2-(methylthio)ethyl ester (9CI)",360.85,1,C=CC(=O)OCCSC,le15,0,0,0,1
"2-ethenyl-1,3,5-trimethylbenzene",344.95,1,C=Cc1c(C)cc(C)cc1C,le15,0,0,0,0
"1-methyl-1,2,3,4-tetrahydronaphthalene",352.25,1,CC1CCCc2ccccc21,le15,0,0,0,0
"6-methyl-1,2,3,4-tetrahydronaphthalene",365.45,1,Cc1ccc2c(c1)CCCC2,le15,0,0,0,0
1-ethenyl-4-propan-2-ylbenzene,343.25,1,C=Cc1ccc(C(C)C)cc1,le15,0,0,0,0
"2-methyl-1,2,3,4-tetrahydronaphthalene",352.85,1,CC1CCc2ccccc2C1,le15,0,0,0,0
"1-ethyl-2,3-dihydro-1H-indene",348.65,1,CCC1CCc2ccccc21,le15,0,0,0,0
"3,3-dimethyl-1,2-dihydroindene",336.75,1,CC1(C)CCc2ccccc21,le15,0,0,0,0
pent-1-en-3-ylbenzene,333.75,1,C=CC(CC)c1ccccc1,le15,0,0,0,0
"5-methyl-1,2,3,4-tetrahydronaphthalene",367.35,1,Cc1cccc2c1CCCC2,le15,0,0,0,0
"1,3-Hexanediol, 2-ethyl-",402.55,1,CCCC(O)C(CC)CO,le15,0,0,0,0
"2,5-dimethylhexane-2,5-diol",399.85,1,CC(C)(O)CCC(C)(C)O,le15,0,0,0,0
"Peroxide, bis(1,1-dimethylethyl)",302.85,1,CC(C)(C)OOC(C)(C)C,le15,0,0,0,0
"Ethanol, 2-(hexyloxy)-",372.05,1,CCCCCCOCCO,le15,0,0,0,0
"Ethanol, 2-(2-ethylbutoxy)-",331.25,1,CCC(CC)COCCO,le15,0,0,0,0
Ditertbutylperoxide,285.0,1,CC(C)(C)OOC(C)(C)C,le15,0,0,0,0
1-amino-3-(diethylamino)propan-2-ol,361.85,1,CCN(CC)CC(O)CN,le15,0,0,0,0
"1,2-Ethanediamine, N,N'-bis(2-aminoethyl)-",422.15,1,NCCNCCNCCN,le15,0,0,0,0
1-fluorononane,358.45,1,CCCCCCCCCF,le15,0,0,0,0
"Diethylenetriamine, 4-(2-aminoethyl)- (6CI,7CI,8CI)",367.65,1,NCCN(CCN)CCN,le15,0,0,0,0
"Propionic acid, 3-(trimethylsilyl)- (8CI)",362.15,1,C[Si](C)(C)CCC(=O)O,le15,1,1,0,1
"Disulfide, di-2-propenyl",315.55,1,C=CCSSCC=C,le15,0,0,0,0
tert-Butyl sulfide (8CI),299.85,1,CC(C)(C)SC(C)(C)C,le15,0,0,0,0
"Butane, 1,1'-thiobis-",349.85,1,CCCCSCCCC,le15,0,0,0,0
2-methyl-1-(2-methylpropylsulfanyl)propane,319.05,1,CC(C)CSCC(C)C,le15,0,0,0,0
secButylsulfide,312.0,1,CCC(C)SC(C)CC,le15,0,0,0,0
"Ethanesulfonyl fluoride, 2-chloro-",308.85,1,O=S(=O)(F)CCCl,le15,0,0,0,0
cyclohexanecarbonyl chloride,354.45,1,O=C(Cl)C1CCCCC1,le15,0,0,0,0
3-bromofuran,276.45,1,Brc1ccoc1,le15,0,0,0,0
4-bromo-1H-pyrazole,381.15,1,Brc1cn[nH]c1,le15,0,0,0,0
3-(trifluoromethyl)pyridine,304.25,1,FC(F)(F)c1cccnc1,le15,0,0,0,0
"Benzenamine, 2,3,4-trifluoro-",344.95,1,Nc1ccc(F)c(F)c1F,le15,0,0,0,0
"1H-Isoindole-1,3(2H)-dione",444.05,1,O=C1NC(=O)c2ccccc21,le15,0,0,0,0
ethyl 2-nitropropanoate,362.55,1,CCOC(=O)C(C)[N+](=O)[O-],le15,0,0,0,0
"1,2,3-Benzotriazin-4(3H)-one (8CI)",397.75,1,O=c1[nH]nnc2ccccc12,le15,0,0,0,0
"Quinoline, 8-fluoro-",371.15,1,Fc1cccc2cccnc12,le15,0,0,0,0
"Quinoline, 5-fluoro-",371.15,1,Fc1cccc2ncccc12,le15,0,0,0,0
"Quinoline, 4-fluoro-",371.15,1,Fc1ccnc2ccccc12,le15,0,0,0,0
"Quinoline, 3-fluoro-",371.15,1,Fc1cnc2ccccc2c1,le15,0,0,0,0
"Quinoline, 7-fluoro-",371.15,1,Fc1ccc2cccnc2c1,le15,0,0,0,0
2-Fluoroquinoline,373.25,1,Fc1ccc2ccccc2n1,le15,0,0,0,0
"Quinoline, 6-fluoro-",371.15,1,Fc1ccc2ncccc2c1,le15,0,0,0,0
"2,5-dimethyl-1,3-benzoxazole",364.15,1,Cc1ccc2oc(C)nc2c1,le15,0,0,0,0
2-(4-methoxyphenyl)acetonitrile,385.15,1,COc1ccc(CC#N)cc1,le15,0,0,0,0
"1H-Benzimidazol-2-amine, 1-methyl-",429.45,1,Cn1c(N)nc2ccccc21,le15,0,0,0,0
hexyl nitrate,335.95,1,CCCCCCO[N+](=O)[O-],le15,0,0,0,0
"1-methyl-3,4-dihydro-2H-quinoline",368.15,1,CN1CCCc2ccccc21,le15,0,0,0,0
2-[(E)-pent-3-enyl]pyridine,355.95,1,C/C=C/CCc1ccccn1,le15,0,0,0,0
"1,1-diethoxy-N,N-dimethylmethanamine",295.35,1,CCOC(OCC)N(C)C,le15,0,0,0,0
"Ethanol, 2-((2-((2-aminoethyl)amino)ethyl)amino)-",379.25,1,NCCNCCNCCO,le15,0,0,0,0
"Acetaldehyde, 2,2,2-trichloro-",288.05,1,O=CC(Cl)(Cl)Cl,le15,0,0,0,0
"Propane, 1,1,2-trichloro-",317.45,1,CC(Cl)C(Cl)Cl,le15,0,0,0,0
"Propane, 1,2,2-trichloro-",317.25,1,CC(Cl)(Cl)CCl,le15,0,0,0,0
"Propane, 1,2,3-trichloro-",347.15,1,ClCC(Cl)CCl,le15,0,0,0,0
"1,1,3-trichloropropane",332.85,1,ClCCC(Cl)Cl,le15,0,0,0,0
"Pyridine, 2,3-dichloro-",360.65,1,Clc1cccnc1Cl,le15,0,0,0,0
"Pyridine, 2,6-dichloro-",370.65,1,Clc1cccc(Cl)n1,le15,0,0,0,0
"Butanenitrile, 4-bromo-",377.05,1,N#CCCCBr,le15,0,0,0,0
"2-Butenedioic acid, 2,3-dihydroxy-, (E)- (9CI)",475.36300000000006,1,O=C(O)/C(O)=C(\O)C(=O)O,le15,0,0,0,1
PhthalicAnhydride,425.0,1,O=C1OC(=O)c2ccccc21,le15,0,0,0,0
"Benzonitrile, 3-nitro-",383.05,1,N#Cc1cccc([N+](=O)[O-])c1,le15,0,0,0,0
"Benzonitrile, 4-nitro-",413.05,1,N#Cc1ccc([N+](=O)[O-])cc1,le15,0,0,0,0
"Benzonitrile, 2-nitro- (9CI)",410.75,1,N#Cc1ccccc1[N+](=O)[O-],le15,0,0,0,0
"2-Propenoic acid, 3-phenyl-, (2E)-",462.65,1,O=C(O)/C=C/c1ccccc1,le15,0,0,0,1
"4H-1-Benzopyran-4-one, 2,3-dihydro-",401.534,1,O=C1CCOc2ccccc21,le15,0,0,0,0
"1,2-Propanedione, 1-phenyl-",357.15,1,CC(=O)C(=O)c1ccccc1,le15,0,0,0,0
"2H-1-Benzopyran-2-one, 3,4-dihydro-",381.55,1,O=C1CCc2ccccc2O1,le15,0,0,0,0
"3-Pyridinecarbonitrile, 1,2-dihydro-4,6-dimethyl-2-oxo-",429.95,1,Cc1cc(C)c(C#N)c(=O)[nH]1,le15,0,0,0,0
"Indoline, 1-nitroso-",409.05,1,O=NN1CCc2ccccc21,le15,0,0,0,0
"2-Butanone, 3-ethoxy-1,1-dihydroxy-",372.65,1,CCOC(C)C(=O)C(O)O,le15,0,0,0,0
"Hydratropaldehyde, p-methyl- (6CI,7CI,8CI)",374.15,1,Cc1ccc(C(C)C=O)cc1,le15,0,0,0,0
"Benzene, 1-methoxy-4-(2-propenyl)-",354.15,1,C=CCc1ccc(OC)cc1,le15,0,0,0,0
"2,4,6-trimethylbenzaldehyde",378.75,1,Cc1cc(C)c(C=O)c(C)c1,le15,0,0,0,0
"1-Naphthalenol, 1,2,3,4-tetrahydro-",373.05,1,OC1CCCc2ccccc21,le15,0,0,0,0
"2-Naphthalenol, 1,2,3,4-tetrahydro- (9CI)",371.55,1,OC1CCc2ccccc2C1,le15,0,0,0,0
2-methyl-1-phenylpropan-1-one,352.45,1,CC(C)C(=O)c1ccccc1,le15,0,0,0,0
1-(4-ethylphenyl)ethanone,367.25,1,CCc1ccc(C(C)=O)cc1,le15,0,0,0,0
1-phenylbutan-2-one,363.75,1,CCC(=O)Cc1ccccc1,le15,0,0,0,0
"5,6,7,8-tetrahydronaphthalen-2-ol",404.95,1,Oc1ccc2c(c1)CCCC2,le15,0,0,0,0
"Benzene, (3,4-epoxybutyl)-",358.65,1,c1ccc(CCC2CO2)cc1,le15,0,0,0,0
"2-Propen-1-ol, 2-methyl-3-phenyl-",395.65,1,CC(=Cc1ccccc1)CO,le15,0,0,0,0
"2-Butanone, 4-phenyl-",371.15,1,CC(=O)CCc1ccccc1,le15,0,0,0,0
3-(4-methylphenyl)propanal,372.55,1,Cc1ccc(CCC=O)cc1,le15,0,0,0,0
1-(3-methylphenyl)propan-1-one,371.25,1,CCC(=O)c1cccc(C)c1,le15,0,0,0,0
"Benzene, 1-methoxy-4-(1-propenyl)-",361.55,1,CC=Cc1ccc(OC)cc1,le15,0,0,0,0
"Benzaldehyde, 4-(1-methylethyl)-",366.45,1,CC(C)c1ccc(C=O)cc1,le15,0,0,0,0
"5,6,7,8-tetrahydronaphthalen-1-ol",395.75,1,Oc1cccc2c1CCCC2,le15,0,0,0,0
"1-(2,5-dimethylphenyl)ethanone",361.95,1,CC(=O)c1cc(C)ccc1C,le15,0,0,0,0
"Benzene, 1-methoxy-4-(1-propenyl)-, (E)-",361.55,1,C/C=C/c1ccc(OC)cc1,le15,0,0,0,0
4-methyl-2-prop-2-enylphenol,374.85,1,C=CCc1cc(C)ccc1O,le15,0,0,0,0
1phenyl1butanone,361.0,1,CCCC(=O)c1ccccc1,le15,0,0,0,0
Anethole,363.0,1,CC=Cc1ccc(OC)cc1,le15,0,0,0,0
"Ethane, 1,1',1''-(methylidynetris(oxy))tris-",303.15,1,CCOC(OCC)OCC,le15,0,0,0,0
"Ether, 2-ethoxyethyl 2-methoxyethyl",326.95,1,CCOCCOCCOC,le15,0,0,0,0
"4-Thiazolidinone, 3-amino-2-thioxo-",389.15,1,NN1C(=O)CSC1=S,le15,0,0,0,0
"N,N-dimethyl-N'-phenylmethanimidamide",359.85,1,CN(C)C=Nc1ccccc1,le15,0,0,0,0
"Ethanol, 2-(2-(1-methylethoxy)ethoxyl)-",354.05,1,CC(C)OCCOCCO,le15,0,0,0,0
Triethoxymethane,303.0,1,CCOC(OCC)OCC,le15,0,0,0,0
2-methyl-1-benzothiophene,345.55,1,Cc1cc2ccccc2s1,le15,0,0,0,0
"Sulfide, phenyl 2-propynyl (6CI,7CI,8CI)",349.85,1,C#CCSc1ccccc1,le15,0,0,0,0
"1-Octanol, 8-fluoro-",378.95,1,OCCCCCCCCF,le15,0,0,0,0
"Thiophene, tetrahydro-2,4-dimethyl-, 1,1-dioxide",418.75,1,CC1CC(C)S(=O)(=O)C1,le15,0,0,0,0
"1,2,3,4,5-pentamethylbenzene",364.25,1,Cc1cc(C)c(C)c(C)c1C,le15,0,0,0,0
1-tert-butyl-3-methylbenzene,333.65,1,Cc1cccc(C(C)(C)C)c1,le15,0,0,0,0
3-methylbutylbenzene,338.15,1,CC(C)CCc1ccccc1,le15,0,0,0,0
2-methylbutan-2-ylbenzene,332.45,1,CCC(C)(C)c1ccccc1,le15,0,0,0,0
"1,3-diethyl-5-methylbenzene",342.95,1,CCc1cc(C)cc(CC)c1,le15,0,0,0,0
pentan-2-ylbenzene,333.75,1,CCCC(C)c1ccccc1,le15,0,0,0,0
2-methylbutylbenzene,337.15,1,CCC(C)Cc1ccccc1,le15,0,0,0,0
1-ethyl-4-propan-2-ylbenzene,338.85,1,CCc1ccc(C(C)C)cc1,le15,0,0,0,0
"2,4-dimethyl-1-propan-2-ylbenzene",340.25,1,Cc1ccc(C(C)C)c(C)c1,le15,0,0,0,0
1-ethyl-3-propan-2-ylbenzene,335.95,1,CCc1cccc(C(C)C)c1,le15,0,0,0,0
1-methyl-4-(2-methylpropyl)benzene,340.45,1,Cc1ccc(CC(C)C)cc1,le15,0,0,0,0
"1-ethyl-2,4,5-trimethylbenzene",348.75,1,CCc1cc(C)c(C)cc1C,le15,0,0,0,0
1-methyl-2-(2-methylpropyl)benzene,341.75,1,Cc1ccccc1CC(C)C,le15,0,0,0,0
"Benzene, 1-methyl-4-(1,1-dimethylethyl)- (9CI)",327.55,1,Cc1ccc(C(C)(C)C)cc1,le15,0,0,0,0
3-methylbutan-2-ylbenzene,330.05,1,CC(C)C(C)c1ccccc1,le15,0,0,0,0
"Disulfide, 2-propenyl propyl",327.55,1,C=CCSSCCC,le15,0,0,0,0
"2-Propenoic acid, 2-methyl-, 2-chloroethyl ester",348.45,1,C=C(C)C(=O)OCCCl,le15,0,0,0,1
Heptanoyl chloride,330.15,1,CCCCCCC(=O)Cl,le15,0,0,0,0
"Heptane, 1-chloro-5-methyl-",325.65,1,CCC(C)CCCCCl,le15,0,0,0,0
"Heptane, 3-(chloromethyl)-",333.15,1,CCCCC(CC)CCl,le15,0,0,0,0
"Pyridazine, 3,6-dichloro-",421.05,1,Clc1ccc(Cl)nn1,le15,0,0,0,0
"Methanesulfonyl chloride, chloro-",346.55,1,O=S(=O)(Cl)CCl,le15,0,0,0,0
bromocyclopentane,308.15,1,BrC1CCCC1,le15,0,0,0,0
5-bromopent-1-ene,304.15,1,C=CCCCBr,le15,0,0,0,0
"2,2,3,3,3-pentafluoropropan-1-amine",322.65,1,NCC(F)(F)C(F)(F)F,le15,0,0,0,0
"Benzene, 1-ethenyl-4-nitro- (9CI)",358.45,1,C=Cc1ccc([N+](=O)[O-])cc1,le15,0,0,0,0
"Benzene, (2-nitroethenyl)-",390.65,1,O=[N+]([O-])C=Cc1ccccc1,le15,0,0,0,0
4-Hydroxy-3-methoxybenzonitrile,403.25,1,COc1cc(C#N)ccc1O,le15,0,0,0,0
"Adenine, N-methyl- (8CI)",525.05,1,CNc1ncnc2nc[nH]c12,le15,0,0,0,0
"Adenine, 9-methyl- (8CI)",460.35699999999997,1,Cn1cnc2c(N)ncnc21,le15,0,0,0,0
"Acetamide, N-methyl-N-phenyl-",366.35,1,CC(=O)N(C)c1ccccc1,le15,0,0,0,0
"N,N-dimethylbenzamide",385.05,1,CN(C)C(=O)c1ccccc1,le15,0,0,0,0
"Benzaldehyde, 4-(dimethylamino)-",376.45,1,CN(C)c1ccc(C=O)cc1,le15,0,0,0,0
ethyl N-phenylmethanimidate,344.15,1,CCOC=Nc1ccccc1,le15,0,0,0,0
"Ethanol, 2,2',2''-nitrilotris-",458.15,1,OCCN(CCO)CCO,le15,0,0,0,0
1-isothiocyanato-4-methylbenzene,373.65,1,Cc1ccc(N=C=S)cc1,le15,0,0,0,0
"Benzene, (isothiocyanatomethyl)-",373.55,1,S=C=NCc1ccccc1,le15,0,0,0,0
"Benzothiazole, 2-methyl-",375.15,1,Cc1nc2ccccc2s1,le15,0,0,0,0
Methionine,412.55,1,CSCC[C@H](N)C(=O)O,le15,0,0,0,0
"Methionine, L-",412.55,1,CSCC[C@H](N)C(=O)O,le15,0,0,0,0
"L-Cysteine, S-ethyl- (9CI)",401.85,1,CCSC[C@H](N)C(=O)O,le15,0,0,0,0
"Benzenamine, N,N-diethyl-",370.95,1,CCN(CC)c1ccccc1,le15,0,0,0,0
N-benzylpropan-2-amine,360.15,1,CC(C)NCc1ccccc1,le15,0,0,0,0
"Benzenamine, 4-butyl-",374.85,1,CCCCc1ccc(N)cc1,le15,0,0,0,0
2-methyl-1-phenylpropan-2-amine,366.25,1,CC(C)(N)Cc1ccccc1,le15,0,0,0,0
"Benzenamine, 2,6-diethyl-",396.45,1,CCc1cccc(CC)c1N,le15,0,0,0,0
"Benzenamine, 4-(1,1-dimethylethyl)-",374.15,1,CC(C)(C)c1ccc(N)cc1,le15,0,0,0,0
"Benzenamine, N-butyl-",380.15,1,CCCCNc1ccccc1,le15,0,0,0,0
"Benzenemethanamine, N,N,alpha-trimethyl- (9CI)",337.55,1,CC(c1ccccc1)N(C)C,le15,0,0,0,0
"2,6-Octadienenitrile, 3,7-dimethyl-, (2E)-",376.85,1,CC(C)=CCC/C(C)=C/C#N,le15,0,0,0,0
2-tert-butylaniline,372.85,1,CC(C)(C)c1ccccc1N,le15,0,0,0,0
4-phenylbutan-2-amine,370.95,1,CC(N)CCc1ccccc1,le15,0,0,0,0
4-(2-methylpropyl)aniline,375.85,1,CC(C)Cc1ccc(N)cc1,le15,0,0,0,0
"Benzenamine, 4-(1-methylpropyl)-",380.95,1,CCC(C)c1ccc(N)cc1,le15,0,0,0,0
2-pentan-3-ylpyridine,324.45,1,CCC(CC)c1ccccn1,le15,0,0,0,0
"1,2-Dithiolan-4-amine, N,N-dimethyl-",353.55,1,CN(C)C1CSSC1,le15,0,0,0,0
"Ethanol, 2,2,2-trichloro-",361.15,1,OCC(Cl)(Cl)Cl,le15,0,0,0,0
"Butanamide, 2-chloro-N-methyl-3-oxo-",398.75,1,CNC(=O)C(Cl)C(C)=O,le15,0,0,0,0
"Acetamide, 2-chloro-N,N-diethyl-",350.15,1,CCN(CC)C(=O)CCl,le15,0,0,0,0
"2,2,3,3,3-pentafluoropropan-1-ol",284.75,1,OCC(F)(F)C(F)(F)F,le15,0,0,0,0
"1,2,4,5-tetrafluorobenzene",289.15,1,Fc1cc(F)c(F)cc1F,le15,0,0,0,0
"1,2,3,4-tetrafluorobenzene",293.75,1,Fc1ccc(F)c(F)c1F,le15,0,0,0,0
"1,2,3,5-tetrafluorobenzene",277.55,1,Fc1cc(F)c(F)c(F)c1,le15,0,0,0,0
"(2R,3R)-2,3-dihydroxybutanedioic acid",482.55,1,O=C(O)[C@H](O)[C@@H](O)C(=O)O,le15,0,0,0,1
"Benzoic acid, 2-formyl-",435.75,1,O=Cc1ccccc1C(=O)O,le15,0,0,0,1
"1,3-Benzodioxole-5-carboxaldehyde",376.75,1,O=Cc1ccc2c(c1)OCO2,le15,0,0,0,0
4-formylbenzoic acid,442.35,1,O=Cc1ccc(C(=O)O)cc1,le15,0,0,0,1
L-Arabinopyranose,428.45,1,OC1OC[C@H](O)[C@H](O)[C@H]1O,le15,0,0,0,0
"Purine-2,6-diyldiamine",720.965,1,Nc1nc(N)c2[nH]cnc2n1,le15,0,0,0,0
methyl 2-methylbenzoate,355.35,1,COC(=O)c1ccccc1C,le15,0,0,0,0
methyl 3-methylbenzoate,368.75,1,COC(=O)c1cccc(C)c1,le15,0,0,0,0
"Benzoic acid, 4-methyl-, methyl ester",363.15,1,COC(=O)c1ccc(C)cc1,le15,0,0,0,1
"Acetic acid, phenyl-, methyl ester",367.05,1,COC(=O)Cc1ccccc1,le15,0,0,0,1
"Formic acid, 2-phenylethyl ester",392.25,1,O=COCCc1ccccc1,le15,0,0,0,1
(3-methylphenyl) acetate,358.35,1,CC(=O)Oc1cccc(C)c1,le15,0,0,0,0
"Acetic acid, phenylmethyl ester",375.35,1,CC(=O)OCc1ccccc1,le15,0,0,0,1
"Acetic acid, 4-methylphenyl ester",363.15,1,CC(=O)Oc1ccc(C)cc1,le15,0,0,0,1
Hydrocinnamic acid (8CI),443.195,1,O=C(O)CCc1ccccc1,le15,0,0,0,1
1-(3-methoxyphenyl)ethanone,364.35,1,COc1cccc(C(C)=O)c1,le15,0,0,0,0
"2,4-dimethylbenzoic acid",404.45,1,Cc1ccc(C(=O)O)c(C)c1,le15,0,0,0,1
2-ethoxybenzaldehyde,380.15,1,CCOc1ccccc1C=O,le15,0,0,0,0
1-phenoxypropan-2-one,358.15,1,CC(=O)COc1ccccc1,le15,0,0,0,0
(4-methylphenyl) acetate,446.65,1,CC(=O)Oc1ccc(C)cc1,le15,0,0,0,0
"2,6-dimethylbenzoic acid",399.25,1,Cc1cccc(C)c1C(=O)O,le15,0,0,0,1
"2,5-Cyclohexadiene-1,4-dione, 2,3,5-trimethyl-",350.45,1,CC1=CC(=O)C(C)=C(C)C1=O,le15,0,0,0,0
"1,2-Benzenediol, 4-(2-propenyl)-",414.85,1,C=CCc1ccc(O)c(O)c1,le15,0,0,0,0
1-(2-hydroxy-5-methylphenyl)ethanone,372.95,1,CC(=O)c1cc(C)ccc1O,le15,0,0,0,0
2-methoxy-1-phenylethanone,368.05,1,COCC(=O)c1ccccc1,le15,0,0,0,0
2-(4-methoxyphenyl)acetaldehyde,381.65,1,COc1ccc(CC=O)cc1,le15,0,0,0,0
"Benzaldehyde, 4-ethoxy-",348.15,1,CCOc1ccc(C=O)cc1,le15,0,0,0,0
3-ethoxybenzaldehyde,379.75,1,CCOc1cccc(C=O)c1,le15,0,0,0,0
"Propane, 1,2-epoxy-3-phenoxy-",367.907,1,c1ccc(OCC2CO2)cc1,le15,0,0,0,0
2-phenylpropanoic acid,421.15,1,CC(C(=O)O)c1ccccc1,le15,0,0,0,1
(2-methylphenyl) acetate,357.15,1,CC(=O)Oc1ccccc1C,le15,0,0,0,0
"Acetic acid, 2-phenylhydrazide",360.95,1,CC(=O)NNc1ccccc1,le15,0,0,0,1
"Benzenamine, N,N-dimethyl-4-nitroso-",383.45,1,CN(C)c1ccc(N=O)cc1,le15,0,0,0,0
"Urea, (phenylmethyl)- (9CI)",398.05,1,NC(=O)NCc1ccccc1,le15,0,0,0,0
"Acetic acid, phenyl-, hydrazide (8CI)",447.65,1,NNC(=O)Cc1ccccc1,le15,0,0,0,1
N-Methyl-N-nitroso-benzenemethanamine,407.25,1,CN(Cc1ccccc1)N=O,le15,0,0,0,0
"Urea, N-methyl-N'-phenyl- (9CI)",372.05,1,CNC(=O)Nc1ccccc1,le15,0,0,0,0
"Ethanol, 2,2'-(1,2-ethanediylbis(oxy))bis-",438.75,1,OCCOCCOCCO,le15,0,0,0,0
"Benzothiazole, 2-amino-",412.95,1,Nc1nc2ccccc2s1,le15,0,0,0,0
"Benzothiazole, 6-amino-",422.35,1,Nc1ccc2ncsc2c1,le15,0,0,0,0
"2H-Benzimidazole-2-thione, 1,3-dihydro-",390.65,1,S=c1[nH]c2ccccc2[nH]1,le15,0,0,0,0
"Butanoic acid, 2-hydroxy-4-(methylthio)-",418.35,1,CSCCC(O)C(=O)O,le15,0,0,0,1
"Propionic acid, 2-methyl-2-(methylsulfinyl)-",441.35,1,CS(=O)C(C)(C)C(=O)O,le15,0,0,0,1
"Phenol, 2-(1,1-dimethylethyl)-",383.15,1,CC(C)(C)c1ccccc1O,le15,0,0,0,0
"Phenol, 2-(1-methylpropyl)-",385.15,1,CCC(C)c1ccccc1O,le15,0,0,0,0
"Phenol, 5-methyl-2-(1-methylethyl)-",374.15,1,Cc1ccc(C(C)C)c(O)c1,le15,0,0,0,0
"Phenol, 4-(1,1-dimethylethyl)-",384.05,1,CC(C)(C)c1ccc(O)cc1,le15,0,0,0,0
"2-Cyclohexen-1-one, 2-methyl-5-(1-methylethenyl)-",362.05,1,C=C(C)C1CC=C(C)C(=O)C1,le15,0,0,0,0
"Phenol, 4-(1-methylpropyl)-",388.75,1,CCC(C)c1ccc(O)cc1,le15,0,0,0,0
"Phenethyl alcohol, alpha,alpha-dimethyl-",354.25,1,CC(C)(O)Cc1ccccc1,le15,0,0,0,0
"Benzene, 1-methoxy-4-propyl-",363.15,1,CCCc1ccc(OC)cc1,le15,0,0,0,0