compound,flashpoint,pure substance,smiles,source,is_silicon,is_metallic,is_tin,is_acid
DIPHENYLMETHANE,403.1,1,c1ccc(Cc2ccccc2)cc1,didier14,0,0,0,0
"1,3,5-TRIETHYLBENZENE",354.1,1,CCc1cc(CC)cc(CC)c1,didier14,0,0,0,0
TRIPROPYLAMINE,302.0,1,CCCN(CCC)CCC,didier14,0,0,0,0
TRIALLYLAMINE,304.0,1,C=CCN(CC=C)CC=C,didier14,0,0,0,0
TRI-n-BUTYLAMINE,359.3,1,CCCCN(CCCC)CCCC,didier14,0,0,0,0
2-ETHYLHEXYL ACETATE,344.1,1,CCCCC(CC)COC(C)=O,didier14,0,0,0,0
2-ETHYLHEXYL ACRYLATE,355.1,1,C=CC(=O)OCC(CC)CCCC,didier14,0,0,0,0
"1,2-DIPHENYLETHANE",402.0,1,c1ccc(CCc2ccccc2)cc1,didier14,0,0,0,0
trans-STILBENE,418.0,1,C(=C/c1ccccc1)\c1ccccc1,didier14,0,0,0,0
DIBENZYL ETHER,408.1,1,c1ccc(COCc2ccccc2)cc1,didier14,0,0,0,0
PHENETOLE,325.0,1,CCOc1ccccc1,didier14,0,0,0,0
ANETHOLE,362.1,1,CC=Cc1ccc(OC)cc1,didier14,0,0,0,0
n-BUTYLBENZENE,323.1,1,CCCCc1ccccc1,didier14,0,0,0,0
BENZYL FORMATE,355.0,1,O=COCc1ccccc1,didier14,0,0,0,0
n-DECYLBENZENE,380.0,1,CCCCCCCCCCc1ccccc1,didier14,0,0,0,0
TRIDECANAL,390.0,1,CCCCCCCCCCCCC=O,didier14,0,0,0,0
p-TOLUALDEHYDE,353.0,1,Cc1ccc(C=O)cc1,didier14,0,0,0,0
2-METHYL-1-UNDECANOL,392.0,1,CCCCCCCCCC(C)CO,didier14,0,0,0,0
VINYL PROPIONATE,274.0,1,C=COC(=O)CC,didier14,0,0,0,0
DIETHYL CARBONATE,298.1,1,CCOC(=O)OCC,didier14,0,0,0,0
BUTYRIC ANHYDRIDE,355.0,1,CCCC(=O)OC(=O)CCC,didier14,0,0,0,0
p-CHLOROTOLUENE,325.0,1,Cc1ccc(Cl)cc1,didier14,0,0,0,0
3-OCTANONE,316.1,1,CCCCCC(=O)CC,didier14,0,0,0,0
n-BUTANE,199.2,1,CCCC,didier14,0,0,0,0
1-BUTENE,193.2,1,C=CCC,didier14,0,0,0,0
ACROLEIN,247.2,1,C=CC=O,didier14,0,0,0,0
3-CHLOROPROPENE,241.2,1,C=CCCl,didier14,0,0,0,0
n-PROPYLAMINE,261.0,1,CCCN,didier14,0,0,0,0
ALLYLAMINE,244.3,1,C=CCN,didier14,0,0,0,0
ACRYLONITRILE,273.1,1,C=CC#N,didier14,0,0,0,0
"2,2,5,5-TETRAMETHYLHEXANE",289.0,1,CC(C)(C)CCC(C)(C)C,didier14,0,0,0,0
ALLYL ALCOHOL,294.0,1,C=CCO,didier14,0,0,0,0
"2,6-DIMETHYLHEPTANE",299.0,1,CC(C)CCCC(C)C,didier14,0,0,0,0
METHYL VINYL ETHER,217.2,1,C=COC,didier14,0,0,0,0
ACETALDOXIME,313.1,1,CC=NO,didier14,0,0,0,0
METHYL FORMATE,254.0,1,COC=O,didier14,0,0,0,0
"2,4,4-TRIMETHYL-1-PENTENE",267.1,1,C=C(C)CC(C)(C)C,didier14,0,0,0,0
"2,4,4-TRIMETHYL-2-PENTENE",272.1,1,CC(C)=CC(C)(C)C,didier14,0,0,0,0
1-METHYL-2-n-PROPYLBENZENE,326.0,1,CCCc1ccccc1C,didier14,0,0,0,0
1-METHYL-3-n-PROPYLBENZENE,325.0,1,CCCc1cccc(C)c1,didier14,0,0,0,0
1-METHYL-4-n-PROPYLBENZENE,326.0,1,CCCc1ccc(C)cc1,didier14,0,0,0,0
DI-tert-BUTYL SULFIDE,300.0,1,CC(C)(C)SC(C)(C)C,didier14,0,0,0,0
2-METHYLPENTANE,238.0,1,CCCC(C)C,didier14,0,0,0,0
trans-CROTONIC acid,368.0,1,C/C=C/C(=O)O,didier14,0,0,0,1
DIMETHYLETHANOLAMINE,314.1,1,CN(C)CCO,didier14,0,0,0,0
VINYL ACETATE,265.0,1,C=COC(C)=O,didier14,0,0,0,0
"2,4-DIMETHYLPENTANE",261.0,1,CC(C)CC(C)C,didier14,0,0,0,0
n-NONYLBENZENE,372.0,1,CCCCCCCCCc1ccccc1,didier14,0,0,0,0
ISOPROPYL ACETATE,275.0,1,CC(=O)OC(C)C,didier14,0,0,0,0
1-METHYLVINYL ACETATE,283.0,1,C=C(C)OC(C)=O,didier14,0,0,0,0
ACETIC ANHYDRIDE,322.6,1,CC(=O)OC(C)=O,didier14,0,0,0,0
m-DIVINYLBENZENE,338.0,1,C=Cc1cccc(C=C)c1,didier14,0,0,0,0
ETHYL ISOVALERATE,298.1,1,CCOC(=O)CC(C)C,didier14,0,0,0,0
"3,5-XYLENOL",373.0,1,Cc1cc(C)cc(O)c1,didier14,0,0,0,0
"2,4,6-TRIMETHYLPYRIDINE",330.1,1,Cc1cc(C)nc(C)c1,didier14,0,0,0,0
"2,6-DIMETHYL-4-HEPTANOL",339.0,1,CC(C)CC(O)CC(C)C,didier14,0,0,0,0
MONOCHLOROBENZENE,305.0,1,Clc1ccccc1,didier14,0,0,0,0
PHENYL MERCAPTAN,346.1,1,Sc1ccccc1,didier14,0,0,0,0
5-HEXEN-2-ONE,296.1,1,C=CCCC(C)=O,didier14,0,0,0,0
n-BUTYLAMINE,261.0,1,CCCCN,didier14,0,0,0,0
VINYLACETONITRILE,296.1,1,C=CCC#N,didier14,0,0,0,0
DIVINYL ETHER,226.2,1,C=COC=C,didier14,0,0,0,0
ETHYL FORMATE,253.2,1,CCOC=O,didier14,0,0,0,0
DI-tert-BUTYL DISULFIDE,337.1,1,CC(C)(C)SSC(C)(C)C,didier14,0,0,0,0
TETRAMETHYLETHYLENEDIAMINE,283.1,1,CN(C)CCN(C)C,didier14,0,0,0,0
ISOPROPYL MYRISTATE,423.0,1,CCCCCCCCCCCCCC(=O)OC(C)C,didier14,0,0,0,0
VALERONITRILE,305.0,1,CCCCC#N,didier14,0,0,0,0
n-PROPYL FORMATE,270.0,1,CCCOC=O,didier14,0,0,0,0
ETHYLTHIOETHANOL,350.1,1,CCSC(C)O,didier14,0,0,0,0
DIETHYL DISULFIDE,313.1,1,CCSSCC,didier14,0,0,0,0
DIISOBUTYLAMINE,294.1,1,CC(C)CNCC(C)C,didier14,0,0,0,0
DI-n-PROPYL ETHER,294.1,1,CCCOCCC,didier14,0,0,0,0
DI-n-PROPYL SULFIDE,301.0,1,CCCSCCC,didier14,0,0,0,0
"3-METHYL-1,4-PENTADIENE",235.0,1,C=CC(C)C=C,didier14,0,0,0,0
TRI-n-OCTYLAMINE,457.0,1,CCCCCCCCN(CCCCCCCC)CCCCCCCC,didier14,0,0,0,0
n-HEPTYLAMINE,308.1,1,CCCCCCCN,didier14,0,0,0,0
1-HEPTANOL,345.0,1,CCCCCCCO,didier14,0,0,0,0
METHYL DODECANOATE,391.0,1,CCCCCCCCCCCC(=O)OC,didier14,0,0,0,0
n-OCTYLAMINE,333.0,1,CCCCCCCCN,didier14,0,0,0,0
n-OCTYL MERCAPTAN,341.1,1,CCCCCCCCS,didier14,0,0,0,0
1-TETRADECENE,370.0,1,C=CCCCCCCCCCCCC,didier14,0,0,0,0
DI-n-OCTYLAMINE,383.1,1,CCCCCCCCNCCCCCCCC,didier14,0,0,0,0
n-NONANOIC acid,401.0,1,CCCCCCCCC(=O)O,didier14,0,0,0,1
n-HEPTYL ACETATE,340.0,1,CCCCCCCOC(C)=O,didier14,0,0,0,0
n-NONYLAMINE,335.1,1,CCCCCCCCCN,didier14,0,0,0,0
n-HEPTYL FORMATE,327.0,1,CCCCCCCOC=O,didier14,0,0,0,0
n-UNDECANOIC acid,421.1,1,CCCCCCCCCCC(=O)O,didier14,0,0,0,1
2-PHENYL-1-PROPANOL,366.1,1,CC(CO)c1ccccc1,didier14,0,0,0,0
n-DODECANE,347.0,1,CCCCCCCCCCCC,didier14,0,0,0,0
DI-n-HEXYL ETHER,350.1,1,CCCCCCOCCCCCC,didier14,0,0,0,0
METHYL OLEATE,450.0,1,CCCCCCCC/C=C\CCCCCCCC(=O)OC,didier14,0,0,0,0
1-TRIDECANOL,394.0,1,CCCCCCCCCCCCCO,didier14,0,0,0,0
OLEIC acid,462.0,1,CCCCCCCC/C=C\CCCCCCCC(=O)O,didier14,0,0,0,1
1-OCTADECANOL,450.0,1,CCCCCCCCCCCCCCCCCCO,didier14,0,0,0,0
n-EICOSANE,440.0,1,CCCCCCCCCCCCCCCCCCCC,didier14,0,0,0,0
ISOBUTENE,197.0,1,C=C(C)C,didier14,0,0,0,0
2-METHYLBUTYRIC acid,348.0,1,CCC(C)C(=O)O,didier14,0,0,0,1
NEOHEPTANOIC acid,366.0,1,CC(C)(C)CCC(=O)O,didier14,0,0,0,1
o-TOLUIC acid,407.0,1,Cc1ccccc1C(=O)O,didier14,0,0,0,1
BENZOPHENONE,419.0,1,O=C(c1ccccc1)c1ccccc1,didier14,0,0,0,0
BENZYL BENZOATE,418.1,1,O=C(OCc1ccccc1)c1ccccc1,didier14,0,0,0,0
DIPHENYLAMINE,426.0,1,c1ccc(Nc2ccccc2)cc1,didier14,0,0,0,0
3-PHENYL-1-PROPANOL,373.1,1,OCCCc1ccccc1,didier14,0,0,0,0
n-DODECYLBENZENE,414.0,1,CCCCCCCCCCCCc1ccccc1,didier14,0,0,0,0
n-TRIDECYLBENZENE,438.0,1,CCCCCCCCCCCCCc1ccccc1,didier14,0,0,0,0
2-ETHYLHEXANAL,317.1,1,CCCCC(C=O)CC,didier14,0,0,0,0
"2,6,8-TRIMETHYL-4-NONANONE",356.0,1,CC(C)CC(=O)CC(C)CC(C)C,didier14,0,0,0,0
PROPIONIC ANHYDRIDE,336.0,1,CCC(=O)OC(=O)CC,didier14,0,0,0,0
trans-CROTONALDEHYDE,281.1,1,C/C=C/C=O,didier14,0,0,0,0
ISOPENTYL ACETATE,298.1,1,CC(=O)OCCC(C)C,didier14,0,0,0,0
DIALLYLAMINE,284.1,1,C=CCNCC=C,didier14,0,0,0,0
n-DODECYLAMINE,382.0,1,CCCCCCCCCCCCN,didier14,0,0,0,0
METHACRYLONITRILE,286.0,1,C=C(C)C#N,didier14,0,0,0,0
"2,6-DI-tert-BUTYL-p-CRESOL",390.1,1,Cc1cc(C(C)(C)C)c(O)c(C(C)(C)C)c1,didier14,0,0,0,0
4-METHYL-1-HEPTENE,275.0,1,C=CCC(C)CCC,didier14,0,0,0,0
7-METHYL-1-OCTENE,291.0,1,C=CCCCCC(C)C,didier14,0,0,0,0
DINONYLPHENOL,535.0,1,CCCCCCCCCc1cccc(O)c1CCCCCCCCC,didier14,0,0,0,0
METHYL t-PENTYL SULFIDE,302.0,1,CCC(C)(C)SC,didier14,0,0,0,0
"2,2,3,3-TETRAMETHYLHEXANE",302.0,1,CCCC(C)(C)C(C)(C)C,didier14,0,0,0,0
n-BUTYL BENZOATE,379.1,1,CCCCOC(=O)c1ccccc1,didier14,0,0,0,0
CINNAMIC acid,445.0,1,O=C(O)C=Cc1ccccc1,didier14,0,0,0,1
BENZYL ACETATE,363.1,1,CC(=O)OCc1ccccc1,didier14,0,0,0,0
PHENYLACETONITRILE,374.1,1,N#CCc1ccccc1,didier14,0,0,0,0
p-tert-OCTYLPHENOL,406.0,1,CC(C)(C)CC(C)(C)c1ccc(O)cc1,didier14,0,0,0,0
ETHYL ACRYLATE,282.1,1,C=CC(=O)OCC,didier14,0,0,0,0
n-BUTYL ACRYLATE,312.0,1,C=CC(=O)OCCCC,didier14,0,0,0,0
tert-OCTYL MERCAPTAN,304.0,1,CC(C)(C)CC(C)(C)S,didier14,0,0,0,0
MESITYL OXIDE,301.0,1,CC(=O)C=C(C)C,didier14,0,0,0,0
ETHYL t-BUTYL SULFIDE,282.0,1,CCSC(C)(C)C,didier14,0,0,0,0
n-HEXYL ACETATE,310.1,1,CCCCCCOC(C)=O,didier14,0,0,0,0
DI-n-BUTYL ETHER,298.1,1,CCCCOCCCC,didier14,0,0,0,0
n-DECYL MERCAPTAN,371.1,1,CCCCCCCCCCS,didier14,0,0,0,0
1-NONADECANOL,458.0,1,CCCCCCCCCCCCCCCCCCCO,didier14,0,0,0,0
1-HEPTADECANOL,441.0,1,CCCCCCCCCCCCCCCCCO,didier14,0,0,0,0
n-NONYL MERCAPTAN,351.1,1,CCCCCCCCCS,didier14,0,0,0,0
n-HEXADECYLBENZENE,466.0,1,CCCCCCCCCCCCCCCCc1ccccc1,didier14,0,0,0,0
n-TETRADECYLBENZENE,447.0,1,CCCCCCCCCCCCCCc1ccccc1,didier14,0,0,0,0
n-HEPTADECYLBENZENE,472.0,1,CCCCCCCCCCCCCCCCCc1ccccc1,didier14,0,0,0,0
"1,1,2-TRIPHENYLETHANE",441.0,1,c1ccc(CC(c2ccccc2)c2ccccc2)cc1,didier14,0,0,0,0
METHYL ISOPROPYL SULFIDE,262.0,1,CSC(C)C,didier14,0,0,0,0
p-PHENETIDINE,389.0,1,CCOc1ccc(N)cc1,didier14,0,0,0,0
IBUPROFEN,436.0,1,CC(C)Cc1ccc(C(C)C(=O)O)cc1,didier14,0,0,0,0
"cis-1,3-PENTADIENE",232.0,1,C=C/C=C\C,didier14,0,0,0,0
cis-CROTONALDEHYDE,281.1,1,C/C=C\C=O,didier14,0,0,0,0
"2,2-DIMETHYLOCTANE",304.0,1,CCCCCCC(C)(C)C,didier14,0,0,0,0
"2,5-DIMETHYLOCTANE",306.0,1,CCCC(C)CCC(C)C,didier14,0,0,0,0
2-METHYL-1-HEPTENE,283.1,1,C=C(C)CCCCC,didier14,0,0,0,0
p-ISOPROPENYLSTYRENE,360.0,1,C=Cc1ccc(C(=C)C)cc1,didier14,0,0,0,0
2-ETHYL-1-HEXENE,279.0,1,C=C(CC)CCCC,didier14,0,0,0,0
"1,9-DECADIENE",316.0,1,C=CCCCCCCC=C,didier14,0,0,0,0
"2,3-DIMETHYL-1-HEXENE",281.0,1,C=C(C)C(C)CCC,didier14,0,0,0,0
"2,2-DIMETHYL-3-ETHYLPENTANE",286.0,1,CCC(CC)C(C)(C)C,didier14,0,0,0,0
"1,2-DIMETHYL-3-PROPYLBENZENE",345.0,1,CCCc1cccc(C)c1C,didier14,0,0,0,0
p-tert-BUTYLSTYRENE,352.0,1,C=Cc1ccc(C(C)(C)C)cc1,didier14,0,0,0,0
2-ETHYL-p-XYLENE,329.0,1,CCc1cc(C)ccc1C,didier14,0,0,0,0
"1,2,4-TRIMETHYL-5-ETHYLBENZENE",347.0,1,CCc1cc(C)c(C)cc1C,didier14,0,0,0,0
N-ETHYL-2-METHYLALLYLAMINE,280.1,1,C=C(C)CNCC,didier14,0,0,0,0
1-NONADECENE,430.0,1,C=CCCCCCCCCCCCCCCCCC,didier14,0,0,0,0
ISOPROPYL BUTYL ETHER,277.0,1,CCCCOC(C)C,didier14,0,0,0,0
"2,3-DIMETHYL-2,3-DIPHENYLBUTANE",412.0,1,CC(C)(c1ccccc1)C(C)(C)c1ccccc1,didier14,0,0,0,0
1-ETHYL-2-ISOPROPYLBENZENE,331.0,1,CCc1ccccc1C(C)C,didier14,0,0,0,0
1-METHYL-3-(METHYLETHOXY)BENZENE,339.0,1,Cc1cccc(OC(C)C)c1,didier14,0,0,0,0
3-METHYLHEXANAL,303.0,1,CCCC(C)CC=O,didier14,0,0,0,0
"trans-1,3-PENTADIENE",230.0,1,C=C/C=C/C,didier14,0,0,0,0
trans-2-DECENE,319.0,1,C/C=C/CCCCCCC,didier14,0,0,0,0
n-TETRADECYLAMINE,406.0,1,CCCCCCCCCCCCCCN,didier14,0,0,0,0
n-DECYLAMINE,358.1,1,CCCCCCCCCCN,didier14,0,0,0,0
"trans-1,3-HEXADIENE",254.2,1,C=C/C=C/CC,didier14,0,0,0,0
ETHYL METHYL DISULFIDE,299.0,1,CCSSC,didier14,0,0,0,0
cis-2-DECENE,320.0,1,C/C=C\CCCCCCC,didier14,0,0,0,0
DIAMYLAMINE,325.1,1,CCCCCNCCCCC,didier14,0,0,0,0
"2,6-DIMETHYLOCTANE",307.0,1,CCC(C)CCCC(C)C,didier14,0,0,0,0
2-PENTANETHIOL,282.5,1,CCCC(C)S,didier14,0,0,0,0
2-BUTYL-1-DECANOL,422.0,1,CCCCCCCCC(CO)CCCC,didier14,0,0,0,0
n-PENTADECYLBENZENE,456.0,1,CCCCCCCCCCCCCCCc1ccccc1,didier14,0,0,0,0
n-OCTYLBENZENE,380.1,1,CCCCCCCCc1ccccc1,didier14,0,0,0,0
n-PROPYL METHACRYLATE,304.0,1,C=C(C)C(=O)OCCC,didier14,0,0,0,0
2-METHYL-DODECAN-1-OL,404.0,1,CCCCCCCCCCC(C)CO,didier14,0,0,0,0
n-PROPYL BENZOATE,371.1,1,CCCOC(=O)c1ccccc1,didier14,0,0,0,0
1-TRIDECENE,352.1,1,C=CCCCCCCCCCCC,didier14,0,0,0,0
DINONYL ETHER,430.0,1,CCCCCCCCCOCCCCCCCCC,didier14,0,0,0,0
CETYL METHACRYLATE,452.0,1,C=C(C)C(=O)OCCCCCCCCCCCCCCCC,didier14,0,0,0,0
NONYLPHENOL,411.0,1,CCCCCCCCCc1ccccc1O,didier14,0,0,0,0
3-ETHYL HEPTANAL,328.0,1,CCCCC(CC)CC=O,didier14,0,0,0,0
4-HYDROXYSTYRENE,377.0,1,C=Cc1ccc(O)cc1,didier14,0,0,0,0
8-METHYL-1-NONENE,316.0,1,C=CCCCCCC(C)C,didier14,0,0,0,0
DI-n-OCTYL SULFIDE,428.0,1,CCCCCCCCSCCCCCCCC,didier14,0,0,0,0
2-ETHYL-m-XYLENE,331.0,1,CCc1c(C)cccc1C,didier14,0,0,0,0
PYRIMIDINE,304.1,1,c1cncnc1,didier14,0,0,0,0
2-METHYL-1-NONENE,315.0,1,C=C(C)CCCCCCC,didier14,0,0,0,0
sec-BUTYL ACRYLATE,299.6,1,C=CC(=O)OC(C)CC,didier14,0,0,0,0
2-METHYLOCTANOIC acid,391.0,1,CCCCCCC(C)C(=O)O,didier14,0,0,0,1
ETHYL PROPYL DISULFIDE,324.0,1,CCCSSCC,didier14,0,0,0,0
1-METHYL-3-HYDROXY-6-ISOPROPYL BENZENE,378.0,1,Cc1cc(O)ccc1C(C)C,didier14,0,0,0,0
1-METHYL-3-HYDROXY-5-ISOPROPYL BENZENE,383.1,1,Cc1cc(O)cc(C(C)C)c1,didier14,0,0,0,0
2-METHYL-1-TRIDECANOL,422.0,1,CCCCCCCCCCCC(C)CO,didier14,0,0,0,0
3-(METHYLMERCAPTO)PROPANAL,334.1,1,CSCCC=O,didier14,0,0,0,0
sec-BUTYL-tert-BUTYL ETHER,276.0,1,CCC(C)OC(C)(C)C,didier14,0,0,0,0
ISOBUTYL-tert-BUTYL ETHER,276.0,1,CC(C)COC(C)(C)C,didier14,0,0,0,0
VINYL PIVALATE,282.1,1,C=COC(=O)C(C)(C)C,didier14,0,0,0,0
3-ETHYL-1-HEXENE,274.0,1,C=CC(CC)CCC,didier14,0,0,0,0
2-ETHYL-1-PENTENE,263.0,1,C=C(CC)CCC,didier14,0,0,0,0
1-EICOSENE,440.0,1,C=CCCCCCCCCCCCCCCCCCC,didier14,0,0,0,0
p-ETHYLSTYRENE,334.0,1,C=Cc1ccc(CC)cc1,didier14,0,0,0,0
5-METHYL-1-HEXENE,257.0,1,C=CCCC(C)C,didier14,0,0,0,0
3-ETHYL-1-HEPTANOL,363.0,1,CCCCC(CC)CCO,didier14,0,0,0,0
DIETHYL SULFIDE,263.1,1,CCSCC,didier14,0,0,0,0
1-HEXADECANOL,427.1,1,CCCCCCCCCCCCCCCCO,didier14,0,0,0,0
ETHYL n-OCTYL SULFIDE,366.0,1,CCCCCCCCSCC,didier14,0,0,0,0
"N,N-DIETHYLHYDROXYLAMINE",318.1,1,CCN(O)CC,didier14,0,0,0,0
4-METHYL-1-HEXENE,258.0,1,C=CCC(C)CC,didier14,0,0,0,0
4-METHYL-1-OCTANOL,358.0,1,CCCCC(C)CCCO,didier14,0,0,0,0
6-METHYL-1-OCTANOL,360.0,1,CCC(C)CCCCCO,didier14,0,0,0,0
METHYL n-PROPYL SULFIDE,270.0,1,CCCSC,didier14,0,0,0,0
"1,2,3,5-TETRAETHYLBENZENE",376.0,1,CCc1cc(CC)c(CC)c(CC)c1,didier14,0,0,0,0
2-BUTYL-OCTAN-1-OL,382.1,1,CCCCCCC(CO)CCCC,didier14,0,0,0,0
"2,4-DIMETHYLOCTANE",304.0,1,CCCCC(C)CC(C)C,didier14,0,0,0,0
3-ETHYL-1-PENTENE,256.0,1,C=CC(CC)CC,didier14,0,0,0,0
trans-2-HEXENE,246.0,1,C/C=C/CCC,didier14,0,0,0,0
"1,2,3-TRIETHYLBENZENE",352.0,1,CCc1cccc(CC)c1CC,didier14,0,0,0,0
trans-2-EICOSENE,420.0,1,C/C=C/CCCCCCCCCCCCCCCCC,didier14,0,0,0,0
"2,2,4,4,6,8,8-HEPTAMETHYLNONANE",368.1,1,CC(CC(C)(C)C)CC(C)(C)CC(C)(C)C,didier14,0,0,0,0
n-OCTADECYLBENZENE,480.0,1,CCCCCCCCCCCCCCCCCCc1ccccc1,didier14,0,0,0,0
4-NONANONE,335.0,1,CCCCCC(=O)CCC,didier14,0,0,0,0
2-METHYLHEXANOIC acid,375.0,1,CCCCC(C)C(=O)O,didier14,0,0,0,1
2-METHYL-1-OCTENE,296.0,1,C=C(C)CCCCCC,didier14,0,0,0,0
NEOPENTANE,201.0,1,CC(C)(C)C,didier14,0,0,0,0
"2,2,3-TRIMETHYLBUTANE",249.0,1,CC(C)C(C)(C)C,didier14,0,0,0,0
6-METHYL-1-HEPTENE,276.0,1,C=CCCCC(C)C,didier14,0,0,0,0
cis-CROTONIC acid,352.0,1,C/C=C\C(=O)O,didier14,0,0,0,1
n-HEPTADECANOIC acid,469.0,1,CCCCCCCCCCCCCCCCC(=O)O,didier14,0,0,0,1
n-BUTYL NONANOATE,361.0,1,CCCCCCCCC(=O)OCCCC,didier14,0,0,0,0
n-EICOSANIC acid,490.0,1,CCCCCCCCCCCCCCCCCCCC(=O)O,didier14,0,0,0,1
tert-BUTYL CHLORIDE,268.1,1,CC(C)(C)Cl,didier14,0,0,0,0
sec-BUTYL MERCAPTAN,250.2,1,CCC(C)S,didier14,0,0,0,0
"2,3-DIMETHYL-1,3-BUTADIENE",251.2,1,C=C(C)C(=C)C,didier14,0,0,0,0
1-(4-ETHYLPHENYL)-2-(4-ETHYLPHENYL)ETHANE,409.0,1,CCc1ccc(CCc2ccc(CC)cc2)cc1,didier14,0,0,0,0
2-BUTYL-NONAN-1-OL,404.0,1,CCCCCCCC(CO)CCCC,didier14,0,0,0,0
"cis,trans-2,4-HEXADIENE",266.1,1,C/C=C\C=C\C,didier14,0,0,0,0
"trans,trans-2,4-HEXADIENE",266.1,1,C/C=C/C=C/C,didier14,0,0,0,0
TRIPHENYLMETHANE,449.0,1,c1ccc(C(c2ccccc2)c2ccccc2)cc1,didier14,0,0,0,0
"1,2,3,5-TETRAMETHYLBENZENE",336.5,1,Cc1cc(C)c(C)c(C)c1,didier14,0,0,0,0
o-CYMENE,326.1,1,Cc1ccccc1C(C)C,didier14,0,0,0,0
o-TOLUALDEHYDE,340.1,1,Cc1ccccc1C=O,didier14,0,0,0,0
UNDECYL MERCAPTAN,381.0,1,CCCCCCCCCCCS,didier14,0,0,0,0
m-CYMENE,323.1,1,Cc1cccc(C(C)C)c1,didier14,0,0,0,0
ISOBUTYLBENZENE,325.1,1,CC(C)Cc1ccccc1,didier14,0,0,0,0
BENZYL ETHYL ETHER,332.0,1,CCOCc1ccccc1,didier14,0,0,0,0
PROPYL CHLORIDE,255.4,1,CCCCl,didier14,0,0,0,0
METHYL ETHYL ETHER,236.0,1,CCOC,didier14,0,0,0,0
"2,2,4-TRIMETHYLPENTANE",261.0,1,CC(C)CC(C)(C)C,didier14,0,0,0,0
tert-BUTYL ACETATE,287.2,1,CC(=O)OC(C)(C)C,didier14,0,0,0,0
ETHYL CHLOROFORMATE,275.1,1,CCOC(=O)Cl,didier14,0,0,0,0
DIISOPENTYLSULFIDE,352.0,1,CC(C)CCSCCC(C)C,didier14,0,0,0,0
DI-n-BUTYL SULFIDE,331.0,1,CCCCSCCCC,didier14,0,0,0,0
n-TETRADECANOIC acid,446.0,1,CCCCCCCCCCCCCC(=O)O,didier14,0,0,0,1
n-DECYL FORMATE,367.0,1,CCCCCCCCCCOC=O,didier14,0,0,0,0
n-NONYL FORMATE,353.0,1,CCCCCCCCCOC=O,didier14,0,0,0,0
8-METHYL-1-NONANOL,377.6,1,CC(C)CCCCCCCO,didier14,0,0,0,0
METHYL n-PROPYL ETHER,232.0,1,CCCOC,didier14,0,0,0,0
2-CHLOROPROPENE,239.2,1,C=C(C)Cl,didier14,0,0,0,0
"3,3-DIMETHYLPENTANE",254.0,1,CCC(C)(C)CC,didier14,0,0,0,0
"3,3-DIMETHYLHEXANE",272.0,1,CCCC(C)(C)CC,didier14,0,0,0,0
2-METHYL-1-BUTENE,221.0,1,C=C(C)CC,didier14,0,0,0,0
"2,3-DIMETHYL-1-BUTENE",255.2,1,C=C(C)C(C)C,didier14,0,0,0,0
"2,3-DIMETHYLPENTANE",258.0,1,CCC(C)C(C)C,didier14,0,0,0,0
n-HEXADECANOIC acid,461.0,1,CCCCCCCCCCCCCCCC(=O)O,didier14,0,0,0,1
ETHYL n-HEXYL ETHER,303.0,1,CCCCCCOCC,didier14,0,0,0,0
o-ETHYLANILINE,364.1,1,CCc1ccccc1N,didier14,0,0,0,0
"2,6-DIETHYLANILINE",396.1,1,CCc1cccc(CC)c1N,didier14,0,0,0,0
"2,3-DIMETHYLHEXANE",278.5,1,CCCC(C)C(C)C,didier14,0,0,0,0
tert-BUTYL METHACRYLATE,300.1,1,C=C(C)C(=O)OC(C)(C)C,didier14,0,0,0,0
TRIPHENYLETHYLENE,474.0,1,C(=C(c1ccccc1)c1ccccc1)c1ccccc1,didier14,0,0,0,0
3-METHYLHEXANE,269.0,1,CCCC(C)CC,didier14,0,0,0,0
3-HEXANONE,287.1,1,CCCC(=O)CC,didier14,0,0,0,0
sec-BUTYL FORMATE,274.0,1,CCC(C)OC=O,didier14,0,0,0,0
4-OCTANONE,318.1,1,CCCCC(=O)CCC,didier14,0,0,0,0
cis-2-BUTENE,203.0,1,C/C=C\C,didier14,0,0,0,0
"2,2-DIMETHYLPENTANE",258.1,1,CCCC(C)(C)C,didier14,0,0,0,0
"2,2-DIMETHYLHEXANE",269.0,1,CCCCC(C)(C)C,didier14,0,0,0,0
3-METHYLBUTYRALDEHYDE,268.0,1,CC(C)CC=O,didier14,0,0,0,0
n-BUTYL VALERATE,336.0,1,CCCCOC(=O)CCCC,didier14,0,0,0,0
2-METHYLHEXANE,250.0,1,CCCCC(C)C,didier14,0,0,0,0
"1,4-PENTADIENE",218.0,1,C=CCC=C,didier14,0,0,0,0
"1,5-HEXADIENE",227.2,1,C=CCCC=C,didier14,0,0,0,0
"1,4-HEXADIENE",248.2,1,C=CCC=CC,didier14,0,0,0,0
n-BUTYL FORMATE,291.0,1,CCCCOC=O,didier14,0,0,0,0
DIALLYL SULFIDE,319.1,1,C=CCSCC=C,didier14,0,0,0,0
n-OCTADECANE,438.1,1,CCCCCCCCCCCCCCCCCC,didier14,0,0,0,0
2-METHYL-2-AMINOBUTANE,257.0,1,CCC(C)(C)N,didier14,0,0,0,0
"2,3,3-TRIMETHYL-1-BUTENE",256.1,1,C=C(C)C(C)(C)C,didier14,0,0,0,0
"2,2,3,3-TETRAMETHYLBUTANE",278.0,1,CC(C)(C)C(C)(C)C,didier14,0,0,0,0
METHYL ISOPROPYL ETHER,225.0,1,COC(C)C,didier14,0,0,0,0
p-CUMYLPHENOL,433.0,1,CC(C)(c1ccccc1)c1ccc(O)cc1,didier14,0,0,0,0
2-PHENYLETHANOL,369.0,1,OCCc1ccccc1,didier14,0,0,0,0
LINOLEIC acid,467.0,1,CCCCC/C=C\C/C=C\CCCCCCCC(=O)O,didier14,0,0,0,1
PENTAETHYLBENZENE,393.0,1,CCc1cc(CC)c(CC)c(CC)c1CC,didier14,0,0,0,0
2-METHYL-3-ETHYLPENTANE,275.0,1,CCC(CC)C(C)C,didier14,0,0,0,0
o-METHYLSTYRENE,320.1,1,C=Cc1ccccc1C,didier14,0,0,0,0
"1,1-DIPHENYLETHANE",402.0,1,CC(c1ccccc1)c1ccccc1,didier14,0,0,0,0
DI-tert-BUTYL ETHER,270.0,1,CC(C)(C)OC(C)(C)C,didier14,0,0,0,0
"N,N-DIETHYLMETHYLAMINE",250.0,1,CCN(C)CC,didier14,0,0,0,0
3-ETHYLPENTANE,261.0,1,CCC(CC)CC,didier14,0,0,0,0
2-PHENYL-2-PROPANOL,360.1,1,CC(C)(O)c1ccccc1,didier14,0,0,0,0
"1,2,3-TRIMETHYL-4-ETHYLBENZENE",346.0,1,CCc1ccc(C)c(C)c1C,didier14,0,0,0,0
"1,2,4-TRIMETHYL-3-ETHYLBENZENE",346.0,1,CCc1c(C)ccc(C)c1C,didier14,0,0,0,0
m-ETHYLPHENOL,367.1,1,CCc1cccc(O)c1,didier14,0,0,0,0
m-TOLUALDEHYDE,351.1,1,Cc1cccc(C=O)c1,didier14,0,0,0,0
TRIAMYLAMINE,376.0,1,CCCCCN(CCCCC)CCCCC,didier14,0,0,0,0
p-METHYLSTYRENE,319.0,1,C=Cc1ccc(C)cc1,didier14,0,0,0,0
2-METHYL-2-PENTENAL,304.1,1,CCC=C(C)C=O,didier14,0,0,0,0
2-METHYL-1-HEXANOL,333.0,1,CCCCC(C)CO,didier14,0,0,0,0
ETHYL ISOAMYL KETONE,318.0,1,CCC(=O)CCC(C)C,didier14,0,0,0,0
trans-2-BUTENE,201.0,1,C/C=C/C,didier14,0,0,0,0
DIMETHYL DISULFIDE,280.0,1,CSSC,didier14,0,0,0,0
2-METHYL-2-PENTENE,246.0,1,CCC=C(C)C,didier14,0,0,0,0
METHYL ISOBUTYL ETHER,243.0,1,COCC(C)C,didier14,0,0,0,0
ETHYL ISOPROPYL ETHER,228.0,1,CCOC(C)C,didier14,0,0,0,0
ETHYL ISOBUTYL ETHER,259.0,1,CCOCC(C)C,didier14,0,0,0,0
cis-2-PENTENE,226.0,1,C/C=C\CC,didier14,0,0,0,0
"2,5-DIMETHYL-1,5-HEXADIENE",280.0,1,C=C(C)CCC(=C)C,didier14,0,0,0,0
5-METHYL-1-HEXANOL,340.0,1,CC(C)CCCCO,didier14,0,0,0,0
METHYL n-BUTYL ETHER,263.1,1,CCCCOC,didier14,0,0,0,0
DIISOBUTYL ETHER,281.1,1,CC(C)COCC(C)C,didier14,0,0,0,0
METHYL n-PENTYL ETHER,271.0,1,CCCCCOC,didier14,0,0,0,0
n-BUTYL ETHYL ETHER,277.1,1,CCCCOCC,didier14,0,0,0,0
2-NONANOL,355.4,1,CCCCCCCC(C)O,didier14,0,0,0,0
DI-n-PROPYL DISULFIDE,339.1,1,CCCSSCCC,didier14,0,0,0,0
n-HEXYL FORMATE,317.0,1,CCCCCCOC=O,didier14,0,0,0,0
n-PENTADECANE,387.0,1,CCCCCCCCCCCCCCC,didier14,0,0,0,0
1-PENTADECANOL,424.0,1,CCCCCCCCCCCCCCCO,didier14,0,0,0,0
DI-n-OCTYL ETHER,385.1,1,CCCCCCCCOCCCCCCCC,didier14,0,0,0,0
n-HENEICOSANE,450.0,1,CCCCCCCCCCCCCCCCCCCCC,didier14,0,0,0,0
1-EICOSANOL,467.0,1,CCCCCCCCCCCCCCCCCCCCO,didier14,0,0,0,0
n-DOCOSANE,458.0,1,CCCCCCCCCCCCCCCCCCCCCC,didier14,0,0,0,0
n-PENTACOSANE,475.0,1,CCCCCCCCCCCCCCCCCCCCCCCCC,didier14,0,0,0,0
n-HEXACOSANE,475.0,1,CCCCCCCCCCCCCCCCCCCCCCCCCC,didier14,0,0,0,0
TETRAPHENYLMETHANE,525.0,1,c1ccc(C(c2ccccc2)(c2ccccc2)c2ccccc2)cc1,didier14,0,0,0,0
"1,1,2,2-TETRAPHENYLETHANE",448.0,1,c1ccc(C(c2ccccc2)C(c2ccccc2)c2ccccc2)cc1,didier14,0,0,0,0