compound,flashpoint,pure substance,smiles,source,is_silicon,is_metallic,is_tin,is_acid
N-tert-butylaniline,361.0,1,C(C)(C)(C)NC1=CC=CC=C1,carroll11,0,0,0,0
4-sec-butylaniline,381.0,1,C(C)(CC)C1=CC=C(N)C=C1,carroll11,0,0,0,0
2-sec-butylaniline,375.0,1,C(C)(CC)C1=C(N)C=CC=C1,carroll11,0,0,0,0
2-tert-butylphenol,375.0,1,C(C)(C)(C)C1=C(C=CC=C1)O,carroll11,0,0,0,0
3-phenylpropylacetate,386.0,1,C1(=CC=CC=C1)CCCOC(C)=O,carroll11,0,0,0,0
"2,6-diisopropylaniline",396.0,1,C(C)(C)C1=C(N)C(=CC=C1)C(C)C,carroll11,0,0,0,0
allylphenylether,336.0,1,C(C=C)OC1=CC=CC=C1,carroll11,0,0,0,0
divinylether,226.0,1,C(=C)OC=C,carroll11,0,0,0,0
furan,237.0,1,O1C=CC=C1,carroll11,0,0,0,0
2-methylfuran,247.0,1,CC=1OC=CC1,carroll11,0,0,0,0
thiophene,264.0,1,S1C=CC=C1,carroll11,0,0,0,0
2-methylthiophene,281.0,1,CC=1SC=CC1,carroll11,0,0,0,0
2-ethylthiophene,294.0,1,C(C)C=1SC=CC1,carroll11,0,0,0,0
2-propylthiophene,305.0,1,C(CC)C=1SC=CC1,carroll11,0,0,0,0
2-tert-butylfuran,280.0,1,C(C)(C)(C)C=1OC=CC1,carroll11,0,0,0,0
3-methylthiophene,284.0,1,CC1=CSC=C1,carroll11,0,0,0,0
allylmethacrylate,310.0,1,C(C=C)OC(C(=C)C)=O,carroll11,0,0,0,0
geranylformate,368.0,1,C(\C=C(/C)\CCC=C(C)C)C(=O)[O-],carroll11,0,0,0,0
geranylacetate,377.0,1,C(\C=C(/C)\CCC=C(C)C)CC(=O)[O-],carroll11,0,0,0,0
4-propenylanisole,369.0,1,C(=CC)C1=CC=C(C=C1)OC,carroll11,0,0,0,0
diethylfumarate,366.0,1,C(C)\C(=C(/C(=O)[O-])\CC)\C(=O)[O-],carroll11,0,0,0,0
ethylcinnamate,408.0,1,C(C)OC(C=CC1=CC=CC=C1)=O,carroll11,0,0,0,0
1-methoxy-2-propanol,304.0,1,COCC(C)O,carroll11,0,0,0,0
2-methoxyethanol,311.0,1,COCCO,carroll11,0,0,0,0
2-dimethylaminoethanol,314.0,1,CN(CCO)C,carroll11,0,0,0,0
2-ethoxyethanol,315.0,1,C(C)OCCO,carroll11,0,0,0,0
2-isopropoxyethanol,316.0,1,C(C)(C)OCCO,carroll11,0,0,0,0
"2-bromo-1,1-dimethoxyethane",324.0,1,BrCC(OC)OC,carroll11,0,0,0,0
bis(2-methoxyethyl)amine,331.0,1,COCCNCCOC,carroll11,0,0,0,0
2-butoxyethanol,335.0,1,C(CCC)OCCO,carroll11,0,0,0,0
"1,3-dichlorobenzene",336.0,1,ClC1=CC(=CC=C1)Cl,carroll11,0,0,0,0
2-chloropyridine,337.0,1,ClC1=NC=CC=C1,carroll11,0,0,0,0
"1,2-dichlorobenzene",341.0,1,ClC1=C(C=CC=C1)Cl,carroll11,0,0,0,0
2-amino-2-methyl-1-propanol,341.0,1,NC(CO)(C)C,carroll11,0,0,0,0
2-(methylamino)ethanol,345.0,1,CNCCO,carroll11,0,0,0,0
1-amino-2-propanol,340.0,1,NCC(C)O,carroll11,0,0,0,0
2-chlorophenol,345.0,1,ClC1=C(C=CC=C1)O,carroll11,0,0,0,0
(2-hydroxyethyl)propylamine,351.0,1,OCCNCCC,carroll11,0,0,0,0
"1,2-dimethoxybenzene",360.0,1,COC1=C(C=CC=C1)OC,carroll11,0,0,0,0
"2,3-dichloro-1-propanol",366.0,1,ClC(CO)CCl,carroll11,0,0,0,0
diphenylether,388.0,1,C1(=CC=CC=C1)OC1=CC=CC=C1,carroll11,0,0,0,0
dimethylphthalate,423.0,1,COC(C=1C(C(=O)OC)=CC=CC1)=O,carroll11,0,0,0,0
diisobutylphthalate,458.0,1,C(C(C)C)OC(C=1C(C(=O)OCC(C)C)=CC=CC1)=O,carroll11,0,0,0,0
diethylphthalate,433.0,1,C(C)OC(C=1C(C(=O)OCC)=CC=CC1)=O,carroll11,0,0,0,0
furfural,331.0,1,C(C1=CC=CO1)=O,carroll11,0,0,0,0
furfurylalcohol,348.0,1,C(C1=CC=CO1)O,carroll11,0,0,0,0
furfurylacetate,338.0,1,C(C1=CC=CO1)CC(=O)[O-],carroll11,0,0,0,0
furfurylpropanoate,355.0,1,C(C1=CC=CO1)OC(CC)=O,carroll11,0,0,0,0
"2,5-dimethoxy-2,5-dihydrofuran",320.0,1,COC1OC(C=C1)OC,carroll11,0,0,0,0
methylsalicylate,372.0,1,COC=1C(C(=O)[O-])=CC=CC1,carroll11,0,0,0,0
ethylsalicylate,380.0,1,C(C)OC=1C(C(=O)[O-])=CC=CC1,carroll11,0,0,0,0
2-phenylethanol,375.0,1,C1(=CC=CC=C1)CCO,carroll11,0,0,0,0
diethyleneglycol,397.0,1,C(COCCO)O,carroll11,0,0,0,0
N-methyldiethanolamine,410.0,1,CN(CCO)CCO,carroll11,0,0,0,0
3-methylfuran,251.0,1,CC1=COC=C1,carroll11,0,0,0,0
2-ethylfuran,271.0,1,C(C)C=1OC=CC1,carroll11,0,0,0,0
3-ethylthiophene,296.0,1,C(C)C1=CSC=C1,carroll11,0,0,0,0
cyclohexylmethacrylate,355.0,1,C1(CCCCC1)OC(C(=C)C)=O,carroll11,0,0,0,0
cyclohexylacrylate,341.0,1,C1(CCCCC1)OC(C=C)=O,carroll11,0,0,0,0
1-phenyl-3-pentanone,376.0,1,C1(=CC=CC=C1)CCC(CC)=O,carroll11,0,0,0,0
2-propylfuran,288.0,1,C(CC)C=1OC=CC1,carroll11,0,0,0,0
isobutylbenzoate,375.0,1,C(C(C)C)OC(C1=CC=CC=C1)=O,carroll11,0,0,0,0
10-chloro-3-decyne,359.0,1,ClCCCCCCC#CCC,carroll11,0,0,0,0
1-chloro-4-decyne,360.0,1,ClCCCC#CCCCCC,carroll11,0,0,0,0
"2-chloro-1,3-butadiene",253.0,1,ClC(=C)C=C,carroll11,0,0,0,0
2-isobutoxyethanol,324.0,1,C(C(C)C)OCCO,carroll11,0,0,0,0
Methyltrichlorosilane,276.15,1,C[Si](Cl)(Cl)Cl,chen14,1,1,0,0
Ethyltrichlorosilane,263.15,1,C(C)[Si](Cl)(Cl)Cl,chen14,1,1,0,0
Tetramethoxysilane,294.15,1,CO[Si](OC)(OC)OC,chen14,1,1,0,0
Tetramethylsilane,245.15,1,C[Si](C)(C)C,chen14,1,1,0,0
Octamethylcyclotetrasiloxane,330.15,1,C[Si]1(O[Si](O[Si](O[Si](O1)(C)C)(C)C)(C)C)C,chen14,1,1,0,0
Decamethylcyclopentasiloxane,350.15,1,C[Si]1(O[Si](O[Si](O[Si](O[Si](O1)(C)C)(C)C)(C)C)(C)C)C,chen14,1,1,0,0
Vinyltriethylsilane,318.15,1,C(=C)[Si](CC)(CC)CC,chen14,1,1,0,0
Dodecamethylcyclohexasiloxane,366.15,1,C[Si]1(O[Si](O[Si](O[Si](O[Si](O[Si](O1)(C)C)(C)C)(C)C)(C)C)(C)C)C,chen14,1,1,0,0
Vinyltriethylsilane,298.15,1,C(=C)[Si](CC)(CC)CC,chen14,1,1,0,0
"(2E)-but-2-ene-1,4-diol",401.0,1,OC/C=C/CO,Saldana11,0,0,0,0
"(2R,3R,4R,5S)-hexane-1,2,3,4,5,6-hexol",422.0,1,OC[C@H](O)[C@@H](O)[C@H](O)[C@H](O)CO,Saldana11,0,0,0,0
"(2S)-butane-1,2,4-triol",385.0,1,OCC[C@H](O)CO,Saldana11,0,0,0,0
"(2Z)-but-2-ene-1,4-diol",401.0,1,OC/C=C\CO,Saldana11,0,0,0,0
"2-butyl-2-ethylpropane-1,3-diol",386.0,1,CCCCC(CC)(CO)CO,Saldana11,0,0,0,0
2-butyloctan-1-ol,382.0,1,CCCCCCC(CO)CCCC,Saldana11,0,0,0,0
2-ethylbutan-1-ol,330.0,1,CCC(CC)CO,Saldana11,0,0,0,0
2-ethylhexan-1-ol,346.0,1,CCCCC(CC)CO,Saldana11,0,0,0,0
"2-ethylhexane-1,3-diol",409.0,1,CCCC(O)C(CC)CO,Saldana11,0,0,0,0
2-methylbutan-1-ol,316.0,1,CCC(C)CO,Saldana11,0,0,0,0
2-methylbutan-2-ol,294.0,1,CCC(C)(C)O,Saldana11,0,0,0,0
2-methylpentan-1-ol,319.0,1,CCCC(C)CO,Saldana11,0,0,0,0
"2-methylpentane-2,4-diol",366.0,1,CC(O)CC(C)(C)O,Saldana11,0,0,0,0
2-methylpropan-1-ol,301.0,1,OCC(C)C,Saldana11,0,0,0,0
2-methylpropan-2-ol,284.0,1,CC(C)(C)O,Saldana11,0,0,0,0
"2,2-bis(hydroxymethyl)propane-1,3-diol",533.0,1,OCC(CO)(CO)CO,Saldana11,0,0,0,0
"2,2-diethylpropane-1,3-diol",374.0,1,CCC(CC)(CO)CO,Saldana11,0,0,0,0
"2,2-dimethylpropane-1,3-diol",371.0,1,OCC(C)(C)CO,Saldana11,0,0,0,0
"2,2,4-trimethylpentan-1-ol",330.0,1,OCC(C)(C)CC(C)C,Saldana11,0,0,0,0
"2,2,4-trimethylpentane-1,3-diol",383.0,1,OCC(C)(C)C(O)C(C)C,Saldana11,0,0,0,0
"2,3-dimethylbutane-2,3-diol",350.0,1,CC(C)(O)C(C)(C)O,Saldana11,0,0,0,0
"2,3,4-trimethylpentan-1-ol",333.0,1,OCC(C)C(C)C(C)C,Saldana11,0,0,0,0
"2,4,4-trimethylpentan-1-ol",333.0,1,OCC(C)CC(C)(C)C,Saldana11,0,0,0,0
3-methylbutan-1-ol,316.0,1,OCCC(C)C,Saldana11,0,0,0,0
3-methylbutan-2-ol,299.0,1,CC(O)C(C)C,Saldana11,0,0,0,0
3-methylheptan-3-ol,327.0,1,CCCCC(C)(O)CC,Saldana11,0,0,0,0
3-methylpentan-1-ol,331.0,1,OCCC(C)CC,Saldana11,0,0,0,0
3-methylpentan-3-ol,297.0,1,CCC(C)(O)CC,Saldana11,0,0,0,0
"3,3-dimethylbutan-1-ol",321.0,1,OCCC(C)(C)C,Saldana11,0,0,0,0
4-methylpentan-2-ol,314.0,1,CC(C)CC(C)O,Saldana11,0,0,0,0
5-methylheptan-3-ol,327.0,1,CCC(C)CC(O)CC,Saldana11,0,0,0,0
8-methylnonan-1-ol,378.0,1,OCCCCCCCC(C)C,Saldana11,0,0,0,0
butan-1-ol,310.0,1,CCCCO,Saldana11,0,0,0,0
butan-2-ol,296.0,1,CCC(C)O,Saldana11,0,0,0,0
"butane-1,2-diol",363.0,1,CCC(O)CO,Saldana11,0,0,0,0
"butane-1,3-diol",382.0,1,OCCC(C)O,Saldana11,0,0,0,0
"butane-1,4-diol",407.0,1,OCCCCO,Saldana11,0,0,0,0
"butane-2,3-diol",358.0,1,CC(O)C(C)O,Saldana11,0,0,0,0
decan-1-ol,378.0,1,CCCCCCCCCCO,Saldana11,0,0,0,0
"ethane-1,2-diol",383.0,1,OCCO,Saldana11,0,0,0,0
ethanol,286.0,1,CCO,Saldana11,0,0,0,0
heptan-1-ol,346.0,1,CCCCCCCO,Saldana11,0,0,0,0
heptan-2-ol,332.0,1,CCCCCC(C)O,Saldana11,0,0,0,0
hexan-1-ol,335.0,1,CCCCCCO,Saldana11,0,0,0,0
hexan-2-ol,314.0,1,CCCCC(C)O,Saldana11,0,0,0,0
"hexane-1,2,6-triol",471.0,1,OCCCCC(O)CO,Saldana11,0,0,0,0
"hexane-1,6-diol",420.0,1,OCCCCCCO,Saldana11,0,0,0,0
"hexane-2,5-diol",374.0,1,CC(O)CCC(C)O,Saldana11,0,0,0,0
methanol,284.0,1,CO,Saldana11,0,0,0,0
nonan-1-ol,353.0,1,CCCCCCCCCO,Saldana11,0,0,0,0
oct-1-en-3-ol,341.0,1,CCCCCC(O)C=C,Saldana11,0,0,0,0
octan-1-ol,354.0,1,CCCCCCCCO,Saldana11,0,0,0,0
octan-2-ol,358.0,1,CCCCCCC(C)O,Saldana11,0,0,0,0
pentan-1-ol,330.0,1,CCCCCO,Saldana11,0,0,0,0
pentan-2-ol,314.0,1,CCCC(C)O,Saldana11,0,0,0,0
pentan-3-ol,313.0,1,CCC(O)CC,Saldana11,0,0,0,0
"pentane-1,5-diol",402.0,1,OCCCCCO,Saldana11,0,0,0,0
"pentane-2,4-diol",374.0,1,CC(O)CC(C)O,Saldana11,0,0,0,0
prop-2-en-1-ol,294.0,1,OCC=C,Saldana11,0,0,0,0
propan-1-ol,298.0,1,CCCO,Saldana11,0,0,0,0
propan-2-ol,285.0,1,CC(C)O,Saldana11,0,0,0,0
"propane-1,1-diol",372.0,1,CCC(O)O,Saldana11,0,0,0,0
"propane-1,2-diol",372.0,1,OCC(C)O,Saldana11,0,0,0,0
"propane-1,2,3-triol",433.0,1,OCC(O)CO,Saldana11,0,0,0,0
"propane-1,3-diol",352.0,1,OCCCO,Saldana11,0,0,0,0
tetradecan-1-ol,418.0,1,CCCCCCCCCCCCCCO,Saldana11,0,0,0,0
tridecan-1-ol,394.0,1,CCCCCCCCCCCCCO,Saldana11,0,0,0,0
(1-methylheptyl)benzene,373.0,1,CCCCCCC(C)c1ccccc1,Saldana11,0,0,0,0
(1E)-prop-1-en-1-ylbenzene,325.0,1,C/C=C/c1ccccc1,Saldana11,0,0,0,0
(1Z)-prop-1-enylbenzene,311.0,1,C/C=C\c1ccccc1,Saldana11,0,0,0,0
(2-methylbutyl)benzene,337.0,1,CCC(C)Cc1ccccc1,Saldana11,0,0,0,0
"(2,2-dimethylpropyl)benzene",323.0,1,CC(C)(C)Cc1ccccc1,Saldana11,0,0,0,0
1-ethyl-2-isopropylbenzene,331.0,1,CC(C)c1ccccc1C,Saldana11,0,0,0,0
1-ethyl-2-methylbenzene,312.0,1,CCc1ccccc1C,Saldana11,0,0,0,0
"1-ethyl-2,3-dimethylbenzene",338.0,1,CCc1cccc(C)c1C,Saldana11,0,0,0,0
"1-ethyl-2,4-dimethylbenzene",330.0,1,CCc1ccc(C)cc1C,Saldana11,0,0,0,0
1-ethyl-3-methylbenzene,311.0,1,CCc1cccc(C)c1,Saldana11,0,0,0,0
1-ethyl-4-methylbenzene,309.0,1,CCc1ccc(C)cc1,Saldana11,0,0,0,0
1-methyl-2-ethenylbenzene,320.0,1,C=Cc1ccccc1C,Saldana11,0,0,0,0
1-methyl-3-(propan-2-yl)benzene,323.0,1,Cc1cccc(c1)C(C)C,Saldana11,0,0,0,0
1-methyl-3-ethenylbenzene,324.0,1,C=Cc1cccc(C)c1,Saldana11,0,0,0,0
1-methyl-3-propylbenzene,325.0,1,CCCc1cccc(C)c1,Saldana11,0,0,0,0
1-methyl-4-ethenylbenzene,319.0,1,C=Cc1ccc(C)cc1,Saldana11,0,0,0,0
"1,1-diphenylethane",402.0,1,CC(c1ccccc1)c1ccccc1,Saldana11,0,0,0,0
"1,2-diethylbenzene",330.0,1,CCc1ccccc1CC,Saldana11,0,0,0,0
"1,2-dimethyl-3-propylbenzene",345.0,1,CCCc1cccc(C)c1C,Saldana11,0,0,0,0
"1,2-dimethylbenzene",290.0,1,Cc1ccccc1C,Saldana11,0,0,0,0
"1,2-diphenylbenzene",436.0,1,c1ccc(cc1)c1ccccc1c1ccccc1,Saldana11,0,0,0,0
"1,2-diphenylethane",402.0,1,c1ccc(cc1)CCc1ccccc1,Saldana11,0,0,0,0
"1,2,3-trimethylbenzene",317.0,1,Cc1cccc(C)c1C,Saldana11,0,0,0,0
"1,2,3,4-tetramethylbenzene",341.0,1,Cc1ccc(C)c(C)c1C,Saldana11,0,0,0,0
"1,2,3,5-tetramethylbenzene",336.0,1,Cc1cc(C)c(C)c(C)c1,Saldana11,0,0,0,0
"1,2,4-triethylbenzene",353.0,1,CCc1ccc(CC)c(CC)c1,Saldana11,0,0,0,0
"1,2,4-trimethylbenzene",319.0,1,Cc1ccc(C)c(C)c1,Saldana11,0,0,0,0
"1,2,4,5-tetramethylbenzene",328.0,1,Cc1cc(C)c(C)cc1C,Saldana11,0,0,0,0
"1,3-di(propan-2-yl)benzene",349.0,1,CC(C)c1cccc(c1)C(C)C,Saldana11,0,0,0,0
"1,3-diethylbenzene",329.0,1,CCc1cccc(CC)c1,Saldana11,0,0,0,0
"1,3-diphenylbenzene",464.0,1,c1ccc(cc1)c1cccc(c1)c1ccccc1,Saldana11,0,0,0,0
"1,3-xylene",298.0,1,Cc1cccc(C)c1,Saldana11,0,0,0,0
"1,3,5-triethylbenzene",354.0,1,CCc1cc(CC)cc(CC)c1,Saldana11,0,0,0,0
"1,3,5-triisopropylbenzene",360.0,1,CC(C)c1cc(cc(c1)C(C)C)C(C)C,Saldana11,0,0,0,0
"1,3,5-trimethylbenzene",318.0,1,Cc1cc(C)cc(C)c1,Saldana11,0,0,0,0
"1,4-diethylbenzene",329.0,1,CCc1ccc(CC)cc1,Saldana11,0,0,0,0
"1,4-diisopropylbenzene",349.0,1,CC(C)c1ccc(cc1)C(C)C,Saldana11,0,0,0,0
"1,4-dimethylbenzene",298.0,1,Cc1ccc(C)cc1,Saldana11,0,0,0,0
"1,4-diphenylbenzene",480.0,1,c1ccc(cc1)c1ccc(cc1)c1ccccc1,Saldana11,0,0,0,0
"2-ethyl-1,4-dimethylbenzene",329.0,1,CCc1cc(C)ccc1C,Saldana11,0,0,0,0
2-phenyl-2-methylbutane,338.0,1,CCC(C)(C)c1ccccc1,Saldana11,0,0,0,0
"2,2-diphenylpropane",383.0,1,CC(C)(c1ccccc1)c1ccccc1,Saldana11,0,0,0,0
"4-ethyl-1,2-dimethylbenzene",331.0,1,CCc1ccc(C)c(C)c1,Saldana11,0,0,0,0
4-isopropyltoluene,320.0,1,Cc1ccc(cc1)C(C)C,Saldana11,0,0,0,0
alpha-methylstyrene,313.0,1,CC(=C)c1ccccc1,Saldana11,0,0,0,0
benzene,262.0,1,c1ccccc1,Saldana11,0,0,0,0
biphenyl,386.0,1,c1ccc(cc1)c1ccccc1,Saldana11,0,0,0,0
cyclohexylbenzene,372.0,1,C1CCC(CC1)c1ccccc1,Saldana11,0,0,0,0
diphenylmethane,403.0,1,c1ccc(cc1)Cc1ccccc1,Saldana11,0,0,0,0
ethenylbenzene,305.0,1,C=Cc1ccccc1,Saldana11,0,0,0,0
ethylbenzene,288.0,1,CCc1ccccc1,Saldana11,0,0,0,0
indane,322.0,1,c1ccc2CCCc2c1,Saldana11,0,0,0,0
isobutylbenzene,325.0,1,CC(C)Cc1ccccc1,Saldana11,0,0,0,0
isopentylbenzene,335.0,1,CC(C)CCc1ccccc1,Saldana11,0,0,0,0
isopropylbenzene,304.0,1,CC(C)c1ccccc1,Saldana11,0,0,0,0
n-butylbenzene,323.0,1,CCCCc1ccccc1,Saldana11,0,0,0,0
n-decylbenzene,380.0,1,CCCCCCCCCCc1ccccc1,Saldana11,0,0,0,0
n-dodecylbenzene,414.0,1,CCCCCCCCCCCCc1ccccc1,Saldana11,0,0,0,0
n-heptylbenzene,368.0,1,CCCCCCCc1ccccc1,Saldana11,0,0,0,0
n-hexylbenzene,353.0,1,CCCCCCc1ccccc1,Saldana11,0,0,0,0
n-propylbenzene,303.0,1,CCCc1ccccc1,Saldana11,0,0,0,0
n-undecylbenzene,417.0,1,CCCCCCCCCCCc1ccccc1,Saldana11,0,0,0,0
nonylbenzene,372.0,1,CCCCCCCCCc1ccccc1,Saldana11,0,0,0,0
octylbenzene,380.0,1,CCCCCCCCc1ccccc1,Saldana11,0,0,0,0
pentamethylbenzene,364.0,1,Cc1cc(C)c(C)c(C)c1C,Saldana11,0,0,0,0
pentylbenzene,338.0,1,CCCCCc1ccccc1,Saldana11,0,0,0,0
sec-butylbenzene,325.0,1,CCC(C)c1ccccc1,Saldana11,0,0,0,0
tert-butylbenzene,333.0,1,CC(C)(C)c1ccccc1,Saldana11,0,0,0,0
tetralin,350.0,1,C1CCc2ccccc2C1,Saldana11,0,0,0,0
toluene,277.0,1,Cc1ccccc1,Saldana11,0,0,0,0
(1R)-1-phenylethan-1-ol,358.0,1,C[C@@H](O)c1ccccc1,Saldana11,0,0,0,0
(2-methylphenyl)methanol,377.0,1,OCc1ccccc1C,Saldana11,0,0,0,0
(3-methylphenyl)methanol,378.0,1,OCc1cccc(C)c1,Saldana11,0,0,0,0
[4-(hydroxymethyl)phenyl]methanol,461.0,1,OCc1ccc(CO)cc1,Saldana11,0,0,0,0
{4-[(benzoyloxy)methyl]cyclohexyl}methyl benzoate,434.0,1,O=C(OCC1CCC(CC1)COC(=O)c1ccccc1)c1ccccc1,Saldana11,0,0,0,0
1-phenylpropan-1-ol,363.0,1,CCC(O)c1ccccc1,Saldana11,0,0,0,0
1-phenylpropan-2-ol,358.0,1,CC(O)Cc1ccccc1,Saldana11,0,0,0,0
2-ethylphenol,351.0,1,CCc1ccccc1O,Saldana11,0,0,0,0
2-furylmethanol,356.0,1,OCc1ccco1,Saldana11,0,0,0,0
2-methylphenol,354.0,1,Cc1ccccc1O,Saldana11,0,0,0,0
2-phenylethanol,369.0,1,OCCc1ccccc1,Saldana11,0,0,0,0
2-phenylpropan-1-ol,366.0,1,OCC(C)c1ccccc1,Saldana11,0,0,0,0
2-phenylpropan-2-ol,360.0,1,CC(C)(O)c1ccccc1,Saldana11,0,0,0,0
"2,6-di-tert-butyl-p-cresol",390.0,1,Cc1cc(c(O)c(c1)C(C)(C)C)C(C)(C)C,Saldana11,0,0,0,0
3-ethylphenol,367.0,1,CCc1cccc(O)c1,Saldana11,0,0,0,0
3-methylphenol,368.0,1,Cc1cccc(O)c1,Saldana11,0,0,0,0
3-phenylpropan-1-ol,373.0,1,OCCCc1ccccc1,Saldana11,0,0,0,0
4-(2-methylbutan-2-yl)phenol,384.0,1,CCC(C)(C)c1ccc(O)cc1,Saldana11,0,0,0,0
4-[2-(4-hydroxyphenyl)propan-2-yl]phenol,480.0,1,Oc1ccc(cc1)C(C)(C)c1ccc(O)cc1,Saldana11,0,0,0,0
4-ethylphenol,373.0,1,CCc1ccc(O)cc1,Saldana11,0,0,0,0
4-methylphenol,368.0,1,Cc1ccc(O)cc1,Saldana11,0,0,0,0
"4-tert-butylbenzene-1,2-diol",403.0,1,Oc1ccc(cc1O)C(C)(C)C,Saldana11,0,0,0,0
4-tert-butylphenol,386.0,1,Oc1ccc(cc1)C(C)(C)C,Saldana11,0,0,0,0
"benzene-1,2-diol",400.0,1,Oc1ccccc1O,Saldana11,0,0,0,0
"benzene-1,3-diol",400.0,1,Oc1cccc(O)c1,Saldana11,0,0,0,0
"benzene-1,4-diol",438.0,1,Oc1ccc(O)cc1,Saldana11,0,0,0,0
benzyl benzoate,418.0,1,O=C(OCc1ccccc1)c1ccccc1,Saldana11,0,0,0,0
benzyl ethanoate,363.0,1,CC(=O)OCc1ccccc1,Saldana11,0,0,0,0
benzyl methanoate,355.0,1,O=COCc1ccccc1,Saldana11,0,0,0,0
butyl benzoate,379.0,1,CCCCOC(=O)c1ccccc1,Saldana11,0,0,0,0
di-n-butyl phthalate,430.0,1,CCCCOC(=O)c1ccccc1C(=O)OCCCC,Saldana11,0,0,0,0
di-n-decyl phthalate,505.0,1,CCCCCCCCCCOC(=O)c1ccccc1C(=O)OCCCCCCCCCC,Saldana11,0,0,0,0
di-n-hexyl phthalate,466.0,1,CCCCCCOC(=O)c1ccccc1C(=O)OCCCCCC,Saldana11,0,0,0,0
di-n-nonyl phthalate,489.0,1,CCCCCCCCCOC(=O)c1ccccc1C(=O)OCCCCCCCCC,Saldana11,0,0,0,0
diethyl phthalate,390.0,1,CCOC(=O)c1ccccc1C(=O)OCC,Saldana11,0,0,0,0
diisobutyl phthalate,434.0,1,CC(C)COC(=O)c1ccccc1C(=O)OCC(C)C,Saldana11,0,0,0,0
diisodecyl phthalate,505.0,1,CC(C)CCCCCCCOC(=O)c1ccccc1C(=O)OCCCCCCCC(C)C,Saldana11,0,0,0,0
dimethyl isophthalate,411.0,1,COC(=O)c1cccc(c1)C(=O)OC,Saldana11,0,0,0,0
dimethyl phthalate,419.0,1,COC(=O)c1ccccc1C(=O)OC,Saldana11,0,0,0,0
dioctyl phthalate,489.0,1,CCCCC(CC)COC(=O)c1ccccc1C(=O)OCC(CC)CCCC,Saldana11,0,0,0,0
ethyl benzoate,357.0,1,CCOC(=O)c1ccccc1,Saldana11,0,0,0,0
methyl benzoate,355.0,1,COC(=O)c1ccccc1,Saldana11,0,0,0,0
n-propyl benzoate,371.0,1,CCCOC(=O)c1ccccc1,Saldana11,0,0,0,0
nonylphenol,411.0,1,CCCCCCCCCc1ccccc1O,Saldana11,0,0,0,0
phenol,353.0,1,Oc1ccccc1,Saldana11,0,0,0,0
phenylmethanol,374.0,1,OCc1ccccc1,Saldana11,0,0,0,0
"xylen-2,4-ol",368.0,1,Cc1ccc(O)c(C)c1,Saldana11,0,0,0,0
"xylen-2,6-ol",346.0,1,Oc1c(C)cccc1C,Saldana11,0,0,0,0
"(1R,2S,5R)-5-methyl-2-propan-2-ylcyclohexan-1-ol",366.0,1,C[C@H]1CC[C@H](C(C)C)[C@@H](O)C1,Saldana11,0,0,0,0
1-methylcyclohexan-1-ol,338.0,1,CC1(O)CCCCC1,Saldana11,0,0,0,0
"1,2,3,6-tetrahydrobenzyl alcohol",346.0,1,OCC1CCC=CC1,Saldana11,0,0,0,0
"1,4-cyclohexanedimethanol",434.0,1,OCC1CCC(CO)CC1,Saldana11,0,0,0,0
2-(4-methylcyclohex-3-en-1-yl)propan-2-ol,367.0,1,CC1=CCC(CC1)C(C)(C)O,Saldana11,0,0,0,0
4-methyl-cyclohexane-methanol,354.0,1,OCC1CCC(C)CC1,Saldana11,0,0,0,0
5-methyloxolan-2-one,354.0,1,CC1CCC(=O)O1,Saldana11,0,0,0,0
cis-2-methylcyclohexanol,331.0,1,C[C@H]1CCCC[C@H]1O,Saldana11,0,0,0,0
cis-3-methylcyclohexanol,335.0,1,C[C@H]1CCC[C@@H](O)C1,Saldana11,0,0,0,0
cis-4-methylcyclohexanol,343.0,1,C[C@@H]1CC[C@H](O)CC1,Saldana11,0,0,0,0
cyclohexanol,341.0,1,OC1CCCCC1,Saldana11,0,0,0,0
cyclohexyl ethanoate,330.0,1,CC(=O)OC1CCCCC1,Saldana11,0,0,0,0
cyclohexyl methanoate,324.0,1,O=COC1CCCCC1,Saldana11,0,0,0,0
"dimethyl-1,4-cyclohexanedicarboxylate",383.0,1,COC(=O)C1CCC(CC1)C(=O)OC,Saldana11,0,0,0,0
oxepan-2-one,382.0,1,O=C1CCCCCO1,Saldana11,0,0,0,0
oxetan-2-one,343.0,1,C1COC1=O,Saldana11,0,0,0,0
oxolan-2-one,371.0,1,O=C1CCCO1,Saldana11,0,0,0,0
trans-2-methylcyclohexanol,331.0,1,C[C@@H]1CCCC[C@H]1O,Saldana11,0,0,0,0
trans-3-methylcyclohexanol,335.0,1,C[C@@H]1CCC[C@@H](O)C1,Saldana11,0,0,0,0
1-ethylpropyl ethanoate,318.0,1,CCC(CC)OC(=O)C,Saldana11,0,0,0,0
1-methylethenyl ethanoate,283.0,1,CC(=C)OC(=O)C,Saldana11,0,0,0,0
"1,2-dimethylpropyl ethanoate",316.0,1,CC(=O)OC(C)C(C)C,Saldana11,0,0,0,0
2-ethylhexyl ethanoate,344.0,1,CCCCC(CC)COC(=O)C,Saldana11,0,0,0,0
2-ethylhexyl prop-2-enoate,355.0,1,CCCCC(CC)COC(=O)C=C,Saldana11,0,0,0,0
"2,2-dimethylpropyl methanoate",311.0,1,O=COCC(C)(C)C,Saldana11,0,0,0,0
"2,2-dimethylpropyl propanoate",334.0,1,CCC(=O)OCC(C)(C)C,Saldana11,0,0,0,0
allyl 2-methylpropenoate,306.0,1,C=CCOC(=O)C(=C)C,Saldana11,0,0,0,0
allyl ethanoate,295.0,1,CC(=O)OCC=C,Saldana11,0,0,0,0
allylidene diethanoate,355.0,1,C=CC(OC(=O)C)OC(=O)C,Saldana11,0,0,0,0
butyl 2-methylprop-2-enoate,322.0,1,CCCCOC(=O)C(=C)C,Saldana11,0,0,0,0
butyl butanoate,326.0,1,CCCCOC(=O)CCC,Saldana11,0,0,0,0
butyl ethanoate,295.0,1,CCCCOC(=O)C,Saldana11,0,0,0,0
butyl methanoate,291.0,1,CCCCOC=O,Saldana11,0,0,0,0
butyl prop-2-enoate,312.0,1,CCCCOC(=O)C=C,Saldana11,0,0,0,0
butyl propanoate,305.0,1,CCCCOC(=O)CC,Saldana11,0,0,0,0
decyl ethanoate,378.0,1,CCCCCCCCCCOC(=O)C,Saldana11,0,0,0,0
decyl methanoate,373.0,1,CCCCCCCCCCOC=O,Saldana11,0,0,0,0
di(2-ethylhexyl)hexanedioate,466.0,1,CCCCC(CC)COC(=O)CCCCC(=O)OCC(CC)CCCC,Saldana11,0,0,0,0
diallyl (2Z)-but-2-enedioate,393.0,1,C=CCOC(=O)/C=C\C(=O)OCC=C,Saldana11,0,0,0,0
dibutyl (2Z)-but-2-enedioate,413.0,1,CCCCOC(=O)/C=C\C(=O)OCCCC,Saldana11,0,0,0,0
dibutyl decanedioate,451.0,1,CCCCOC(=O)CCCCCCCCC(=O)OCCCC,Saldana11,0,0,0,0
diethyl (2Z)-but-2-enedioate,366.0,1,CCOC(=O)/C=C\C(=O)OCC,Saldana11,0,0,0,0
diethyl butanedioate,363.0,1,CCOC(=O)CCC(=O)OCC,Saldana11,0,0,0,0
diethyl carbonate,298.0,1,CCOC(=O)OCC,Saldana11,0,0,0,0
diethyl oxalate,395.0,1,CCOC(=O)C(=O)OCC,Saldana11,0,0,0,0
diethyl propanedioate,366.0,1,CCOC(=O)CC(=O)OCC,Saldana11,0,0,0,0
dihexyl hexanedioate,464.0,1,CCCCCCOC(=O)CCCCC(=O)OCCCCCC,Saldana11,0,0,0,0
dimethyl (2Z)-but-2-enedioate,368.0,1,COC(=O)/C=C\C(=O)OC,Saldana11,0,0,0,0
dimethyl propanedioate,363.0,1,COC(=O)CC(=O)OC,Saldana11,0,0,0,0
dioctyl hexanedioate,452.0,1,CCCCCCCCOC(=O)CCCCC(=O)OCCCCCCCC,Saldana11,0,0,0,0
dodecyl butanoate,433.0,1,CCCCCCCCCCCCOC(=O)CCC,Saldana11,0,0,0,0
dodecyl ethanoate,389.0,1,CCCCCCCCCCCCOC(=O)C,Saldana11,0,0,0,0
dodecyl propanoate,421.0,1,CCCCCCCCCCCCOC(=O)CC,Saldana11,0,0,0,0