compound,flashpoint,pure substance,smiles,source,is_silicon,is_metallic,is_tin,is_acid
"Pyridine, 3-amino-",397.15,1,Nc1cccnc1,le15,0,0,0,0
"Pyridine, 4-amino-",429.15,1,Nc1ccncc1,le15,0,0,0,0
3-methylpyridazine,360.95,1,Cc1cccnn1,le15,0,0,0,0
5-methylpyrimidine,316.406,1,Cc1cncnc1,le15,0,0,0,0
4-methylpyrimidine,313.15,1,Cc1ccncn1,le15,0,0,0,0
"2,2-dimethylpropanedinitrile",350.95,1,CC(C)(C#N)C#N,le15,0,0,0,0
2-methylpyrimidine,293.45,1,Cc1ncccn1,le15,0,0,0,0
"Methane, sulfonylbis-",416.15,1,CS(C)(=O)=O,le15,0,0,0,0
"2-methylcyclohexa-1,3-diene",276.25,1,CC1=CCCC=C1,le15,0,0,0,0
1-Hepten-3-yne,281.35,1,C=CC#CCCC,le15,0,0,0,0
"cyclohepta-1,3-diene",284.25,1,C1=CCCCC=C1,le15,0,0,0,0
2norbornene,258.0,1,C1=CC2CCC1C2,le15,0,0,0,0
"ethane-1,2-dithiol",317.55,1,SCCS,le15,0,0,0,0
Methyl disulfide (8CI),297.55,1,CSSC,le15,0,0,0,0
DimethylDisulfide,297.0,1,CSSC,le15,0,0,0,0
"2-Propanol, 1-chloro-",324.85,1,CC(O)CCl,le15,0,0,0,0
1-chloro-2-methoxyethane,288.15,1,COCCCl,le15,0,0,0,0
chloromethoxyethane,292.15,1,CCOCCl,le15,0,0,0,0
3chloro1propanol,346.0,1,OCCCCl,le15,0,0,0,0
chloro(dimethyl)silicon,245.15,1,C[Si](C)Cl,le15,1,1,0,0
"Ethyne, dichloro- (9CI)",280.45,1,ClC#CCl,le15,0,0,0,0
1H-pyrrole-2-carbaldehyde,379.85,1,O=Cc1ccc[nH]1,le15,0,0,0,0
1H-pyridin-2-one,454.25,1,O=c1cccc[nH]1,le15,0,0,0,0
"Acetonitrile, 2,2'-iminobis-",431.05,1,N#CCNCC#N,le15,0,0,0,0
1-ethylpyrrole,298.65,1,CCn1cccc1,le15,0,0,0,0
"2,4-dimethyl-1H-pyrrole",329.75,1,Cc1c[nH]c(C)c1,le15,0,0,0,0
2-ethyl-1H-pyrrole,335.35,1,CCc1ccc[nH]1,le15,0,0,0,0
"Pyrrole, 2,5-dimethyl- (8CI)",327.15,1,Cc1ccc(C)[nH]1,le15,0,0,0,0
Chloronitromethane,297.85,1,O=[N+]([O-])CCl,le15,0,0,0,0
2-Furancarboxaldehyde,331.45,1,O=Cc1ccco1,le15,0,0,0,0
pyran-4-one,374.25,1,O=c1ccocc1,le15,0,0,0,0
pyran-2-one,362.35,1,O=c1cccco1,le15,0,0,0,0
furan-3-carbaldehyde,321.45,1,O=Cc1ccoc1,le15,0,0,0,0
Furfural,333.0,1,O=Cc1ccco1,le15,0,0,0,0
"Benzene, fluoro-",258.15,1,Fc1ccccc1,le15,0,0,0,0
Methanesulphonic acid,462.15,1,CS(=O)(=O)O,le15,0,0,0,1
"2,4-Hexadienal, (2E,4E)-",341.15,1,C/C=C/C=C/C=O,le15,0,0,0,0
"Furan, 2,5-dimethyl-",271.45,1,Cc1ccc(C)o1,le15,0,0,0,0
2-methylcyclopent-2-en-1-one,326.25,1,CC1=CCCC1=O,le15,0,0,0,0
hex-5-yn-2-one,315.85,1,C#CCCC(C)=O,le15,0,0,0,0
3-methylcyclopent-2-en-1-one,326.25,1,CC1=CC(=O)CC1,le15,0,0,0,0
"Furan, 2-ethyl-",274.15,1,CCc1ccco1,le15,0,0,0,0
"2,4-dimethylfuran",273.95,1,Cc1coc(C)c1,le15,0,0,0,0
2-Cyclohexen-1-one,328.85,1,O=C1C=CCCC1,le15,0,0,0,0
cyclohex-3-en-1-one,319.95,1,O=C1CC=CCC1,le15,0,0,0,0
"3,5-dimethyl-1H-pyrazole",363.65,1,Cc1cc(C)[nH]n1,le15,0,0,0,0
"2,5-dimethyl-1H-imidazole",415.45,1,Cc1cnc(C)[nH]1,le15,0,0,0,0
"Acrylonitrile, 3-(dimethylamino)- (7CI,8CI)",405.05,1,CN(C)C=CC#N,le15,0,0,0,0
1-ethylimidazole,352.05,1,CCn1ccnc1,le15,0,0,0,0
"1,2-dimethylimidazole",365.15,1,Cc1nccn1C,le15,0,0,0,0
3-methylcyclohexene,270.15,1,CC1C=CCCC1,le15,0,0,0,0
hept-2-yne,281.15,1,CC#CCCCC,le15,0,0,0,0
1-methylcyclohexene,269.25,1,CC1=CCCCC1,le15,0,0,0,0
hept-1-yne,271.15,1,C#CCCCCC,le15,0,0,0,0
"2,4-dimethylpenta-1,3-diene",283.15,1,C=C(C)C=C(C)C,le15,0,0,0,0
methylidenecyclohexane,266.45,1,C=C1CCCCC1,le15,0,0,0,0
ethylidenecyclopentane,275.85,1,CC=C1CCCC1,le15,0,0,0,0
"hepta-1,2-diene",275.35,1,C=C=CCCCC,le15,0,0,0,0
hept-3-yne,278.45,1,CCC#CCCC,le15,0,0,0,0
1heptyne,271.0,1,C#CCCCCC,le15,0,0,0,0
1methylcyclohexene,270.0,1,CC1=CCCCC1,le15,0,0,0,0
Methylenecyclohexane,267.0,1,C=C1CCCCC1,le15,0,0,0,0
"Methane, chloro(methylthio)- (9CI)",290.35,1,CSCCl,le15,0,0,0,0
2-chloroethanethiol,304.05,1,SCCCl,le15,0,0,0,0
"1,1-Dichloroethene (9CI)",248.15,1,C=C(Cl)Cl,le15,0,0,0,0
"Ethene, 1,2-dichloro-, (E)- (9CI)",279.25,1,Cl/C=C/Cl,le15,0,0,0,0
"Ethylene, 1,2-dichloro-",279.25,1,ClC=CCl,le15,0,0,0,0
"1H-Pyrrole-2,5-dione",409.75,1,O=C1C=CC(=O)N1,le15,0,0,0,0
"Pyridine, 3-fluoro- (8CI)(9CI)",286.483,1,Fc1cccnc1,le15,0,0,0,0
"Pyridine, 2-fluoro-",301.483,1,Fc1ccccn1,le15,0,0,0,0
4-fluoropyridine,295.95,1,Fc1ccncc1,le15,0,0,0,0
"3,5-dimethyl-1,2-oxazole",304.25,1,Cc1cc(C)on1,le15,0,0,0,0
furan-2-ylmethanamine,319.85,1,NCc1ccco1,le15,0,0,0,0
"2,4-dimethyl-1,3-oxazole",307.65,1,Cc1coc(C)n1,le15,0,0,0,0
"2,5-dimethyl-1,3-oxazole",303.15,1,Cc1cnc(C)o1,le15,0,0,0,0
"2-Propen-1-amine, N-2-propenyl-",288.75,1,C=CCNCC=C,le15,0,0,0,0
"Pentanenitrile, 4-methyl-",318.75,1,CC(C)CCC#N,le15,0,0,0,0
"furan-2,5-dione",376.45,1,O=C1C=CC(=O)O1,le15,0,0,0,0
Furfuryl alcohol,338.15,1,OCc1ccco1,le15,0,0,0,0
Methanesulphonyl fluoride,301.65,1,CS(=O)(=O)F,le15,0,0,0,0
"2(3H)-Furanone, 5-methyl-",341.15,1,CC1=CCC(=O)O1,le15,0,0,0,0
ethyl prop-2-ynoate,296.15,1,C#CC(=O)OCC,le15,0,0,0,0
Furan-3-methanol,311.45,1,OCc1ccoc1,le15,0,0,0,0
2-methoxyfuran,283.15,1,COc1ccco1,le15,0,0,0,0
Furfurylalcohol,338.0,1,OCc1ccco1,le15,0,0,0,0
"3,4-dimethyl-1,2,5-oxadiazole",308.65,1,Cc1nonc1C,le15,0,0,0,0
Cyclohexanone,317.15,1,O=C1CCCCC1,le15,0,0,0,0
3-Hexyn-2-ol,326.45,1,CCC#CC(C)O,le15,0,0,0,0
"2,4-Hexadien-1-ol",345.35,1,CC=CC=CCO,le15,0,0,0,0
"3-Penten-2-one, 4-methyl-",303.75,1,CC(=O)C=C(C)C,le15,0,0,0,0
7-Oxabicyclo(4.1.0)heptane,300.35,1,C1CCC2OC2C1,le15,0,0,0,0
"1-Propene, 3,3'-oxybis-",266.15,1,C=CCOCC=C,le15,0,0,0,0
"1-Pentyn-3-ol, 4-methyl-",315.05,1,C#CC(O)C(C)C,le15,0,0,0,0
Hex-2-yn-1-ol,340.95,1,CCCC#CCO,le15,0,0,0,0
3-Cyclohexen-1-ol,326.55,1,OC1CC=CCC1,le15,0,0,0,0
cyclopentanecarbaldehyde,309.15,1,O=CC1CCCC1,le15,0,0,0,0
"Hexa-1,5-dien-3-ol",302.55,1,C=CCC(O)C=C,le15,0,0,0,0
3-Hexyn-1-ol,336.45,1,CCC#CCCO,le15,0,0,0,0
2-methylcyclopentan-1-one,305.85,1,CC1CCCC1=O,le15,0,0,0,0
(E)-hex-4-en-3-one,307.55,1,C/C=C/C(=O)CC,le15,0,0,0,0
"2-Hexenal, (2E)-",308.15,1,CCC/C=C/C=O,le15,0,0,0,0
"3-Hexenal, (3Z)-",333.15,1,CC/C=C\CC=O,le15,0,0,0,0
"4-methyl-3,6-dihydro-2H-pyran",287.45,1,CC1=CCOCC1,le15,0,0,0,0
"1-Pentyn-3-ol, 3-methyl-",302.15,1,C#CC(C)(O)CC,le15,0,0,0,0
5-Hexen-2-one,297.05,1,C=CCCC(C)=O,le15,0,0,0,0
5-Hexyn-1-ol,343.15,1,C#CCCCCO,le15,0,0,0,0
"Pentanal, 2-methylene- (9CI)",302.25,1,C=C(C=O)CCC,le15,0,0,0,0
1-cyclobutylethanone,305.45,1,CC(=O)C1CCC1,le15,0,0,0,0
CyclohexeneOxide,297.0,1,C1CCC2OC2C1,le15,0,0,0,0
Mesityloxide,305.0,1,Cc1cc(C)c(Oc2c(C)cc(C)cc2C)c(C)c1,le15,0,0,0,0
"Propanenitrile, 3-(dimethylamino)-",335.15,1,CN(C)CCC#N,le15,0,0,0,0
"Butanenitrile, 2-amino-2-methyl-",343.85,1,CCC(C)(N)C#N,le15,0,0,0,0
Diethylcyanamide,342.0,1,CCN(C#N)CC,le15,0,0,0,0
2methylthiophene,280.0,1,Cc1cccs1,le15,0,0,0,0
cycloheptane,279.25,1,C1CCCCCC1,le15,0,0,0,0
3-ethylpent-2-ene,309.15,1,CC=C(CC)CC,le15,0,0,0,0
ethylcyclopentane,288.75,1,CCC1CCCC1,le15,0,0,0,0
1heptene,265.0,1,C=CCCCCC,le15,0,0,0,0
2methyl1hexene,267.0,1,C=C(C)CCCC,le15,0,0,0,0
Cycloheptane,279.0,1,C1CCCCCC1,le15,0,0,0,0
Ethylcyclopentane,288.0,1,CCC1CCCC1,le15,0,0,0,0
"2,2,2-trifluoroethanamine",257.15,1,NCC(F)(F)F,le15,0,0,0,0
methyl 2-cyanoacetate,315.85,1,COC(=O)CC#N,le15,0,0,0,0
"2,5-Pyrrolidinedione",433.15,1,O=C1CCC(=O)N1,le15,0,0,0,0
ethyl cyanoformate,297.55,1,CCOC(=O)C#N,le15,0,0,0,0
5-methylpyrrolidin-2-one,400.65,1,CC1CCC(=O)N1,le15,0,0,0,0
piperidin-2-one,406.25,1,O=C1CCCCN1,le15,0,0,0,0
1-isocyanato-2-methylpropane,290.25,1,CC(C)CN=C=O,le15,0,0,0,0
"Propionitrile, 3-ethoxy- (8CI)",337.05,1,CCOCCC#N,le15,0,0,0,0
"Acetamide, N-ethenyl-N-methyl-",336.05,1,C=CN(C)C(C)=O,le15,0,0,0,0
"Crotonamide, 3-methyl-",364.35,1,CC(C)=CC(N)=O,le15,0,0,0,0
"2-Pyrrolidinone, 1-methyl-",364.15,1,CN1CCCC1=O,le15,0,0,0,0
"2-Propenamide, N,N-dimethyl-",344.85,1,C=CC(=O)N(C)C,le15,0,0,0,0
1methyl2pyrrolidinone,359.0,1,CN1CCCC1=O,le15,0,0,0,0
2ethyloxazoline,302.0,1,CCC1=NCCO1,le15,0,0,0,0
"2-methyl-1,3-thiazole",302.05,1,Cc1nccs1,le15,0,0,0,0
"4-methyl-1,3-thiazole",305.15,1,Cc1cscn1,le15,0,0,0,0
2-methylpiperidine,289.15,1,CC1CCCCN1,le15,0,0,0,0
"1H-Azepine, hexahydro-",291.15,1,C1CCCNCC1,le15,0,0,0,0
4-methylpiperidine,280.35,1,CC1CCNCC1,le15,0,0,0,0
"Piperidine, 1-methyl-",276.45,1,CN1CCCCC1,le15,0,0,0,0
1-ethylpyrrolidine,274.75,1,CCN1CCCC1,le15,0,0,0,0
"Allylamine, N-ethyl-2-methyl- (6CI,8CI)",280.35,1,C=C(C)CNCC,le15,0,0,0,0
"Cyclopentylamine, 1-methyl- (6CI)",282.35,1,CC1(N)CCCC1,le15,0,0,0,0
Cyclohexylamine,300.0,1,NC1CCCCC1,le15,0,0,0,0
"Ethanol, 2,2,2-trifluoro-",302.55,1,OCC(F)(F)F,le15,0,0,0,0
"1-Propen-2-ol, acetate",286.05,1,C=C(C)OC(C)=O,le15,0,0,0,0
"2(3H)-Furanone, dihydro-5-methyl-",348.13,1,CC1CCC(=O)O1,le15,0,0,0,0
Glutaraldehyde,339.15,1,O=CCCCC=O,le15,0,0,0,0
"2,4-Pentanedione",316.25,1,CC(=O)CC(C)=O,le15,0,0,0,0
"2,3-Pentanedione",292.85,1,CCC(=O)C(C)=O,le15,0,0,0,0
alpha-Methyl-gamma-butyrolactone,348.15,1,CC1CCOC1=O,le15,0,0,0,0
"2-Vinyl-1,3-dioxolane",294.15,1,C=CC1OCCO1,le15,0,0,0,0
oxan-2-one,354.15,1,O=C1CCCCO1,le15,0,0,0,0
methyl cyclopropanecarboxylate,290.15,1,COC(=O)C1CC1,le15,0,0,0,0
oxan-4-one,336.75,1,O=C1CCOCC1,le15,0,0,0,0
Allylacetate,279.0,1,C=CCCC(=O)[O-],le15,0,0,0,0
gammaValerolactone,354.0,1,CC1CCC(=O)O1,le15,0,0,0,0
MethylCyclopropanecarboxylate,290.0,1,COC(=O)C1CC1,le15,0,0,0,0
MethylMethacrylate,283.0,1,C=C(C)C(=O)OC,le15,0,0,0,0
"Urea, N-2-propen-1-yl-",328.45,1,C=CCNC(N)=O,le15,0,0,0,0
"Pyrrolidine, 1-nitroso-",356.45,1,O=NN1CCCC1,le15,0,0,0,0
"2-Propen-1-amine, N-methyl-N-nitroso- (9CI)",338.95,1,C=CCN(C)N=O,le15,0,0,0,0
"2-Butanone, 3,3-dimethyl-",297.05,1,CC(=O)C(C)(C)C,le15,0,0,0,0
"2-Pentanone, 4-methyl-",286.45,1,CC(=O)CC(C)C,le15,0,0,0,0
Cyclohexanol,340.92800000000005,1,OC1CCCCC1,le15,0,0,0,0
"Valeraldehyde, 2-methyl- (8CI)",289.85,1,CCCC(C)C=O,le15,0,0,0,0
(E)-hex-3-en-1-ol,317.55,1,CC/C=C/CCO,le15,0,0,0,0
3-methylpentan-2-one,285.15,1,CCC(C)C(C)=O,le15,0,0,0,0
2-methylpentan-3-one,283.95,1,CCC(=O)C(C)C,le15,0,0,0,0
3-Hexanone,296.15,1,CCCC(=O)CC,le15,0,0,0,0
2-Hexanone,296.15,1,CCCCC(C)=O,le15,0,0,0,0
oxepane,287.35,1,C1CCCOCC1,le15,0,0,0,0
Hex-5-en-1-ol,320.35,1,C=CCCCCO,le15,0,0,0,0
"1-Penten-3-ol, 3-methyl-",299.15,1,C=CC(C)(O)CC,le15,0,0,0,0
"4-Hexen-1-ol, (4E)-",334.25,1,C/C=C/CCCO,le15,0,0,0,0
(Z)-hex-2-en-1-ol,334.85,1,CCC/C=C\CO,le15,0,0,0,0
"3-Hexen-1-ol, (3Z)-",317.15,1,CC/C=C\CCO,le15,0,0,0,0
"3-Hexen-1-ol, (3E)-",317.55,1,CC/C=C/CCO,le15,0,0,0,0
"Valeraldehyde, 4-methyl-",290.95,1,CC(C)CCC=O,le15,0,0,0,0
"Furan, tetrahydrodimethyl-",277.65,1,CC1(C)CCCO1,le15,0,0,0,0
"Oxirane, butyl- (9CI)",294.95,1,CCCCC1CO1,le15,0,0,0,0
"2-Penten-1-ol, 2-methyl-",333.95,1,CCC=C(C)CO,le15,0,0,0,0
"3,3-Dimethylbutyraldehyde",283.75,1,CC(C)(C)CC=O,le15,0,0,0,0
cyclopentylmethanol,335.35,1,OCC1CCCC1,le15,0,0,0,0
1-Hexen-3-ol,308.15,1,C=CC(O)CCC,le15,0,0,0,0
3-methylpentanal,290.95,1,CCC(C)CC=O,le15,0,0,0,0
3-methylcyclopentan-1-ol,328.15,1,CC1CCC(O)C1,le15,0,0,0,0
"(1R,2S)-2-methylcyclopentan-1-ol",320.35,1,C[C@H]1CCC[C@H]1O,le15,0,0,0,0
2-methylpent-3-en-2-ol,297.35,1,CC=CC(C)(C)O,le15,0,0,0,0
Hexaldehyde,305.15,1,CCCCCC=O,le15,0,0,0,0
"Butyraldehyde, 2-ethyl-",294.25,1,CCC(C=O)CC,le15,0,0,0,0
"2-Hexen-1-ol, (2E)-",327.15,1,CCC/C=C/CO,le15,0,0,0,0
"Oxirane, 3-ethyl-2,2-dimethyl-",277.45,1,CCC1OC1(C)C,le15,0,0,0,0
1-methylcyclopentan-1-ol,313.75,1,CC1(O)CCCC1,le15,0,0,0,0
2ethylbutanal,294.0,1,CCC(C=O)CC,le15,0,0,0,0
2methyl3pentanone,286.0,1,CCC(=O)C(C)C,le15,0,0,0,0
3hexanone,287.0,1,CCCC(=O)CC,le15,0,0,0,0
3methyl2pentanone,285.0,1,CCC(C)C(C)=O,le15,0,0,0,0
5hexen1ol,320.0,1,C=CCCCCO,le15,0,0,0,0
Butylvinylether,264.0,1,C=COCCCC,le15,0,0,0,0
Hexanal,305.0,1,CCCCCC=O,le15,0,0,0,0
MethylIsobutylKetone,287.0,1,CC(=O)CC(C)C,le15,0,0,0,0
Pinacolone,278.0,1,CC(=O)C(C)(C)C,le15,0,0,0,0
"Piperazine, 1-methyl-",315.35,1,CN1CCNCC1,le15,0,0,0,0
"1H-1,4-Diazepine, hexahydro-",337.55,1,C1CNCCNC1,le15,0,0,0,0
piperidin-1-amine,309.25,1,NN1CCCCC1,le15,0,0,0,0
"1,2-Diethyldiaziridine",275.75,1,CCN1CN1CC,le15,0,0,0,0
"Piperazine, 2-methyl-",318.25,1,CC1CNCCN1,le15,0,0,0,0
"2,4-dimethylpentane",260.95,1,CC(C)CC(C)C,le15,0,0,0,0
Heptane,272.05,1,CCCCCCC,le15,0,0,0,0
2methylhexane,270.0,1,CCCCC(C)C,le15,0,0,0,0
3methylhexane,270.0,1,CCCC(C)CC,le15,0,0,0,0
"2,3-Butanedione, monooxime",458.65,1,CC(=O)C(C)=NO,le15,0,0,0,0
N-acetylacetamide,374.95,1,CC(=O)NC(C)=O,le15,0,0,0,0
"2-Propenamide, N-(hydroxymethyl)-",419.35,1,C=CC(=O)NCO,le15,0,0,0,0
"1,3,4-Thiadiazole, 2-amino-",371.45,1,Nc1nncs1,le15,0,0,0,0
3-methylbutanamide,367.25,1,CC(C)CC(N)=O,le15,0,0,0,0
"Formamide, N,N-diethyl-",333.15,1,CCN(C=O)CC,le15,0,0,0,0
(NZ)-N-pentan-2-ylidenehydroxylamine,351.15,1,CCC/C(C)=N\O,le15,0,0,0,0
pentanamide,367.45,1,CCCCC(N)=O,le15,0,0,0,0
"N,N-dimethylpropanamide",338.95,1,CCC(=O)N(C)C,le15,0,0,0,0
N-tert-butylformamide,368.85,1,CC(C)(C)NC=O,le15,0,0,0,0
"Propane, 1-isothiocyanato-",258.15,1,CCCN=C=S,le15,0,0,0,0
"2-methyl-4,5-dihydro-1,3-thiazole",310.35,1,CC1=NCCS1,le15,0,0,0,0
4-methylpentan-2-amine,285.15,1,CC(C)CC(C)N,le15,0,0,0,0
1-Hexanamine,300.15,1,CCCCCCN,le15,0,0,0,0
"N,N-dimethylbutan-1-amine",278.15,1,CCCCN(C)C,le15,0,0,0,0
Isohexylamine,298.85,1,CC(C)CCCN,le15,0,0,0,0
N-propan-2-ylpropan-1-amine,274.25,1,CCCNC(C)C,le15,0,0,0,0
"2-Propanamine, N-(1-methylethyl)-",266.15,1,CC(C)NC(C)C,le15,0,0,0,0
"1-Propanamine, N-propyl-",276.15,1,CCCNCCC,le15,0,0,0,0
"3,3-dimethylbutan-1-amine",274.25,1,CC(C)(C)CCN,le15,0,0,0,0
"1-Butanamine, N-ethyl-",291.15,1,CCCCNCC,le15,0,0,0,0
"3,3-Dimethylbutylamine",278.75,1,CC(C)(C)CCN,le15,0,0,0,0
methyl 2-oxopropanoate,312.15,1,COC(=O)C(C)=O,le15,0,0,0,0
Aceticanhydride,322.0,1,CC(=O)OC(C)=O,le15,0,0,0,0
"Propanoic acid, 2,2-dimethyl-",341.45,1,CC(C)(C)C(=O)O,le15,0,0,0,1
"Ethanol, 2-(2-propenyloxy)-",328.15,1,C=CCOCCO,le15,0,0,0,0
3-hydroxy-3-methylbutan-2-one,315.35,1,CC(=O)C(C)(C)O,le15,0,0,0,0
"Butanoic acid, 3-methyl-",346.55,1,CC(C)CC(=O)O,le15,0,0,0,1
"Hydracrylaldehyde, 2,2-dimethyl- (6CI,7CI,8CI)",333.45,1,CC(C)(C=O)CO,le15,0,0,0,0
"2-Pentanone, 5-hydroxy- (8CI)(9CI)",366.15,1,CC(=O)CCCO,le15,0,0,0,0
"Ethene, (2-methoxyethoxy)- (9CI)",282.45,1,C=COCCOC,le15,0,0,0,0
"2,2-dimethyl-1,3-dioxolane",274.85,1,CC1(C)OCCO1,le15,0,0,0,0
"Butanal, 3-methoxy- (9CI)",299.35,1,COC(C)CC=O,le15,0,0,0,0
"3,3-dimethoxyprop-1-ene",270.35,1,C=CC(OC)OC,le15,0,0,0,0
"Furfuryl alcohol, tetrahydro- (8CI)",347.15,1,OCC1CCCO1,le15,0,0,0,0
"4-methyl-1,3-dioxane",295.35,1,CC1CCOCO1,le15,0,0,0,0
2-(ethoxymethyl)oxirane,296.65,1,CCOCC1CO1,le15,0,0,0,0
2methylbutyricacid,350.0,1,CCC(C)C(=O)O,le15,0,0,0,1
3methylbutanoicacid,347.0,1,CC(C)CC(=O)O,le15,0,0,0,1
MethylIsobutyrate,276.0,1,COC(=O)C(C)C,le15,0,0,0,0
PivalicAcid,337.0,1,CC(C)(C)C(=O)O,le15,0,0,0,0
tertButylFormate,264.0,1,CC(C)(C)OC=O,le15,0,0,0,0
"Ethanamine, N-ethyl-N-nitroso-",332.15,1,CCN(CC)N=O,le15,0,0,0,0
"1,1,3-trimethylurea",367.55,1,CNC(=O)N(C)C,le15,0,0,0,0
Butyrohydrazide,378.05,1,CCCC(=O)NN,le15,0,0,0,0
morpholin-4-amine,331.15,1,NN1CCOCC1,le15,0,0,0,0
fluorocyclohexane,282.05,1,FC1CCCCC1,le15,0,0,0,0
Fluorocyclohexane,278.0,1,FC1CCCCC1,le15,0,0,0,0
2-Imidazolidinethione,316.65,1,S=C1NCCN1,le15,0,0,0,0
Hexyl alcohol,333.15,1,CCCCCCO,le15,0,0,0,0
"Propane, 1,1'-oxybis-",253.15,1,CCCOCCC,le15,0,0,0,0
"2-Butanol, 3,3-dimethyl-",302.05,1,CC(O)C(C)(C)C,le15,0,0,0,0
2-methylpentan-2-ol,294.25,1,CCCC(C)(C)O,le15,0,0,0,0
hexan-3-ol,314.817,1,CCCC(O)CC,le15,0,0,0,0
"1-Butanol, 3,3-dimethyl-",320.95,1,CC(C)(C)CCO,le15,0,0,0,0
"1-Pentanol, 4-methyl- (9CI)",324.85,1,CC(C)CCCO,le15,0,0,0,0
hexan-2-ol,314.15,1,CCCCC(C)O,le15,0,0,0,0
"Ether, butyl ethyl",272.15,1,CCCCOCC,le15,0,0,0,0
"Propane, 2-ethoxy-2-methyl-",254.15,1,CCOC(C)(C)C,le15,0,0,0,0
"1-Butanol, 2,2-dimethyl-",310.55,1,CCC(C)(C)CO,le15,0,0,0,0
"Pentanol, 4-methyl-",324.85,1,CC(C)CCCO,le15,0,0,0,0
"2,3-dimethylbutan-2-ol",302.55,1,CC(C)C(C)(C)O,le15,0,0,0,0
1ethoxybutane,268.0,1,CCCCOCC,le15,0,0,0,0
2ethoxy2methylpropane,254.0,1,CCOC(C)(C)C,le15,0,0,0,0
2ethyl1butanol,330.0,1,CCC(CC)CO,le15,0,0,0,0
2methyl1pentanol,323.0,1,CCCC(C)CO,le15,0,0,0,0
2methyl3pentanol,319.0,1,CCC(O)C(C)C,le15,0,0,0,0
3methyl1pentanol,331.0,1,CCC(C)CCO,le15,0,0,0,0
3methyl2pentanol,313.0,1,CCC(C)C(C)O,le15,0,0,0,0
4methyl1pentanol,324.0,1,CC(C)CCCO,le15,0,0,0,0
4methyl2pentanol,314.0,1,CC(C)CC(C)O,le15,0,0,0,0
DiisopropylEther,245.0,1,CC(C)OC(C)C,le15,0,0,0,0
methyltertpentylether,262.0,1,CCC(C)(C)OC,le15,0,0,0,0
"N,N',N'-trimethylethane-1,2-diamine",282.55,1,CNCCN(C)C,le15,0,0,0,0
thiane,294.25,1,C1CCSCC1,le15,0,0,0,0
2-methylthiolane,301.25,1,CC1CCCS1,le15,0,0,0,0
3-methylthiolane,301.25,1,CC1CCSC1,le15,0,0,0,0
Cyclopentanethiol,298.0,1,SC1CCCC1,le15,0,0,0,0
"Cyclopentene, 3-chloro-",281.85,1,ClC1C=CCC1,le15,0,0,0,0
3-chloro-3-methylbut-1-yne,277.55,1,C#CC(C)(C)Cl,le15,0,0,0,0
5chloro1pentyne,288.0,1,C#CCCCCl,le15,0,0,0,0
"Urea, 1-methyl-1-nitroso- (8CI)",326.25,1,CN(N=O)C(N)=O,le15,0,0,0,0
"Acetamide, N-(2-hydroxyethyl)-",449.85,1,CC(=O)NCCO,le15,0,0,0,0
"Propane, 2-methyl-2-nitro-",292.15,1,CC(C)(C)[N+](=O)[O-],le15,0,0,0,0
2-methyl-1-nitropropane,311.35,1,CC(C)C[N+](=O)[O-],le15,0,0,0,0
"Glycine, N,N-dimethyl-",332.95,1,CN(C)CC(=O)O,le15,0,0,0,0
propan-2-yl carbamate,363.25,1,CC(C)OC(N)=O,le15,0,0,0,0
tertButylNitrite,250.0,1,CC(C)(C)ON=O,le15,0,0,0,0
"2-Propanol, 1-(dimethylamino)-",308.15,1,CC(O)CN(C)C,le15,0,0,0,0
2-(propan-2-ylamino)ethanol,343.45,1,CC(C)NCCO,le15,0,0,0,0
5-Aminopentan-1-ol,338.75,1,NCCCCCO,le15,0,0,0,0
"1-Pentanol, 2-amino-",368.15,1,CCCC(N)CO,le15,0,0,0,0
"1-Propanamine, 3-ethoxy-",305.95,1,CCOCCCN,le15,0,0,0,0
2-(dimethylamino)propan-1-ol,305.25,1,CC(CO)N(C)C,le15,0,0,0,0
"Ethanol, 2-(propylamino)-",351.45,1,CCCNCCO,le15,0,0,0,0
"1-Propanol, 3-(dimethylamino)-",309.25,1,CN(C)CCCO,le15,0,0,0,0
"1,2-Ethanediamine, N-(2-aminoethyl)-",367.594,1,NCCNCCN,le15,0,0,0,0
"Ethanamine, 2-hydrazino-N,N-dimethyl-",339.05,1,CN(C)CCNN,le15,0,0,0,0
thiomorpholine,333.15,1,C1CSCCN1,le15,0,0,0,0
"Butanenitrile, 4-chloro-",358.15,1,N#CCCCCl,le15,0,0,0,0
"Guanidine, 1-nitro-",422.45,1,N=C(N)N[N+](=O)[O-],le15,0,0,0,0
4-Pyridinecarbonitrile,355.85,1,N#Cc1ccncc1,le15,0,0,0,0
3-Pyridinecarbonitrile,357.594,1,N#Cc1cccnc1,le15,0,0,0,0
Picolinonitrile (8CI),362.55,1,N#Cc1ccccn1,le15,0,0,0,0
"Ethylene glycol, monoacetate",350.55,1,CC(=O)OCCO,le15,0,0,0,0
methyl 2-hydroxypropanoate,322.15,1,COC(=O)C(C)O,le15,0,0,0,0
"Acetic acid, 2-ethoxy-",366.25,1,CCOCC(=O)O,le15,0,0,0,1
methyl 3-hydroxypropanoate,345.75,1,COC(=O)CCO,le15,0,0,0,0
methyl 2-methoxyacetate,308.15,1,COCC(=O)OC,le15,0,0,0,0
ethyl 2-hydroxyacetate,334.85,1,CCOC(=O)CO,le15,0,0,0,0
"Benzene, ethenyl-",304.255,1,C=Cc1ccccc1,le15,0,0,0,0
"Ethanol, 2-(1-methylethoxy)-",316.15,1,CC(C)OCCO,le15,0,0,0,0
"1-Propanol, 3-ethoxy-",327.55,1,CCOCCCO,le15,0,0,0,0
3-Hydroxy-3-methylbutan-1-ol,364.45,1,CC(C)(O)CCO,le15,0,0,0,0
2-(Propyloxy)ethanol,324.35,1,CCCOCCO,le15,0,0,0,0
"1,2-dimethoxypropane",273.75,1,COCC(C)OC,le15,0,0,0,0
"1-Propanol, 2-ethoxy-",319.05,1,CCOC(C)CO,le15,0,0,0,0
"1-Butanol, 3-methoxy-",319.85,1,COC(C)CCO,le15,0,0,0,0
"Hydroperoxide, 1,1-dimethylpropyl",314.35,1,CCC(C)(C)OO,le15,0,0,0,0
"Pentane-1,2-diol",377.15,1,CCCC(O)CO,le15,0,0,0,0
"2-methylbutane-2,3-diol",343.35,1,CC(O)C(C)(C)O,le15,0,0,0,0
2isopropoxyethanol,316.0,1,CC(C)OCCO,le15,0,0,0,0
"Ethanol, 2-((2-aminoethyl)amino)-",363.65,1,NCCNCCO,le15,0,0,0,0
2-(2-aminoethoxy)ethanamine,347.95,1,NCCOCCN,le15,0,0,0,0
"Hexane, 1-fluoro-",300.35,1,CCCCCCF,le15,0,0,0,0
S-ethyl ethanethioate,291.45,1,CCSC(C)=O,le15,0,0,0,0
thiolane 1-oxide,389.65,1,O=S1CCCC1,le15,0,0,0,0
"Propionaldehyde, 3-(methylthio)-",334.25,1,CSCCC=O,le15,0,0,0,0
"1,4-Oxathiane",328.75,1,C1CSCCO1,le15,0,0,0,0
4thiapentanal,331.0,1,CSCCC=O,le15,0,0,0,0
"Urea, 1,3-dimethyl-2-thio-",473.15,1,CNC(=S)NC,le15,0,0,0,0
2-methylbutane-1-thiol,292.55,1,CCC(C)CS,le15,0,0,0,0
1-ethylsulfanylpropane,292.05,1,CCCSCC,le15,0,0,0,0
3-methylbutane-1-thiol,291.45,1,CC(C)CCS,le15,0,0,0,0
1-methylsulfanylbutane,293.75,1,CCCCSC,le15,0,0,0,0
"2-Butanethiol, 2-methyl-",272.15,1,CCC(C)(C)S,le15,0,0,0,0
2methyl1butanethiol,292.0,1,CCC(C)CS,le15,0,0,0,0
2pentanethiol,282.0,1,CCCC(C)S,le15,0,0,0,0
3methyl2butanethiol,292.0,1,CC(C)C(C)S,le15,0,0,0,0
tertButylMethylSulfide,270.0,1,CSC(C)(C)C,le15,0,0,0,0
2-methylprop-2-enoyl chloride,300.85,1,C=C(C)C(=O)Cl,le15,0,0,0,0
(E)-but-2-enoyl chloride,308.15,1,C/C=C/C(=O)Cl,le15,0,0,0,0
"2-Butenal, 2-chloro- (9CI)",316.95,1,CC=C(Cl)C=O,le15,0,0,0,0