compound,flashpoint,pure substance,smiles,source,is_silicon,is_metallic,is_tin,is_acid
DIETHYL PHTHALATE,390.1,1,CCOC(=O)c1ccccc1C(=O)OCC,didier14,0,0,0,0
DIISOBUTYL PHTHALATE,434.1,1,CC(C)COC(=O)c1ccccc1C(=O)OCC(C)C,didier14,0,0,0,0
DI-n-BUTYL PHTHALATE,430.1,1,CCCCOC(=O)c1ccccc1C(=O)OCCCC,didier14,0,0,0,0
DI-n-HEXYL PHTHALATE,466.1,1,CCCCCCOC(=O)c1ccccc1C(=O)OCCCCCC,didier14,0,0,0,0
DI-n-NONYL PHTHALATE,489.1,1,CCCCCCCCCOC(=O)c1ccccc1C(=O)OCCCCCCCCC,didier14,0,0,0,0
DI-n-DECYL PHTHALATE,505.0,1,CCCCCCCCCCOC(=O)c1ccccc1C(=O)OCCCCCCCCCC,didier14,0,0,0,0
PHENANTHRENE,444.0,1,c1ccc2c(c1)ccc1ccccc12,didier14,0,0,0,0
2-HYDROXYETHYL METHACRYLATE,370.1,1,C=C(C)C(=O)OCCO,didier14,0,0,0,0
1-n-PENTYLNAPHTHALENE,413.0,1,CCCCCc1cccc2ccccc12,didier14,0,0,0,0
2-METHYLNONANE,314.0,1,CCCCCCCC(C)C,didier14,0,0,0,0
1-DECENE,311.0,1,C=CCCCCCCCC,didier14,0,0,0,0
"1,2,3-TRICHLOROBENZENE",386.0,1,Clc1cccc(Cl)c1Cl,didier14,0,0,0,0
"1,2,3-BENZENETRIOL",458.0,1,Oc1cccc(O)c1O,didier14,0,0,0,0
"HEXACHLORO-1,3-BUTADIENE",395.0,1,ClC(Cl)=C(Cl)C(Cl)=C(Cl)Cl,didier14,0,0,0,0
o-NITROTOLUENE,379.0,1,Cc1ccccc1[N+](=O)[O-],didier14,0,0,0,0
o-CHLORONITROBENZENE,400.1,1,O=[N+]([O-])c1ccccc1Cl,didier14,0,0,0,0
o-NITROANILINE,441.1,1,Nc1ccccc1[N+](=O)[O-],didier14,0,0,0,0
DIPROPYLENE GLYCOL MONOMETHYL ETHER ACETATE,359.0,1,COC(C)COC(C)COC(C)=O,didier14,0,0,0,0
PHTHALIC acid,477.0,1,O=C(O)c1ccccc1C(=O)O,didier14,0,0,0,1
PYROMELLITIC acid,597.0,1,O=C(O)c1cc(C(=O)O)c(C(=O)O)cc1C(=O)O,didier14,0,0,0,1
o-ETHYLPHENOL,351.1,1,CCc1ccccc1O,didier14,0,0,0,0
SALICYLALDEHYDE,349.1,1,O=Cc1ccccc1O,didier14,0,0,0,0
GUAIACOL,355.0,1,COc1ccccc1O,didier14,0,0,0,0
1-METHYLNAPHTHALENE,355.1,1,Cc1cccc2ccccc12,didier14,0,0,0,0
1-CHLORONAPHTHALENE,394.1,1,Clc1cccc2ccccc12,didier14,0,0,0,0
NAPHTHALENE,352.0,1,c1ccc2ccccc2c1,didier14,0,0,0,0
QUINOLINE,374.0,1,c1ccc2ncccc2c1,didier14,0,0,0,0
2-METHYLNAPHTHALENE,370.1,1,Cc1ccc2ccccc2c1,didier14,0,0,0,0
QUINALDINE,352.6,1,Cc1ccc2ccccc2n1,didier14,0,0,0,0
"N,N-DIETHYLANILINE",358.1,1,CCN(CC)c1ccccc1,didier14,0,0,0,0
2-HYDROXYPROPYL METHACRYLATE,369.1,1,C=C(C)C(=O)OCC(C)O,didier14,0,0,0,0
BICYCLOHEXYL,347.1,1,C1CCC(C2CCCCC2)CC1,didier14,0,0,0,0
3-NONANONE,339.1,1,CCCCCCC(=O)CC,didier14,0,0,0,0
DIAMYL KETONE,361.5,1,CCCCCC(=O)CCCCC,didier14,0,0,0,0
MALEONITRILE,389.0,1,N#C/C=C\C#N,didier14,0,0,0,0
BENZIDINE,521.0,1,Nc1ccc(-c2ccc(N)cc2)cc1,didier14,0,0,0,0
2-AMINOETHOXYETHANOL,397.0,1,CC(O)OCCN,didier14,0,0,0,0
p-TERPHENYL,480.0,1,c1ccc(-c2ccc(-c3ccccc3)cc2)cc1,didier14,0,0,0,0
2-ETHYLNAPHTHALENE,377.1,1,CCc1ccc2ccccc2c1,didier14,0,0,0,0
"DIMETHYL-1,4-CYCLOHEXANEDICARBOXYLATE",383.1,1,COC(=O)C1CCC(C(=O)OC)CC1,didier14,0,0,0,0
o-XYLENE,290.0,1,Cc1ccccc1C,didier14,0,0,0,0
o-CRESOL,354.0,1,Cc1ccccc1O,didier14,0,0,0,0
o-DICHLOROBENZENE,339.0,1,Clc1ccccc1Cl,didier14,0,0,0,0
o-CHLOROANILINE,363.7,1,Nc1ccccc1Cl,didier14,0,0,0,0
o-TOLUIDINE,358.1,1,Cc1ccccc1N,didier14,0,0,0,0
o-CHLOROPHENOL,337.0,1,Oc1ccccc1Cl,didier14,0,0,0,0
"1,2,4-TRIMETHYLBENZENE",318.6,1,Cc1ccc(C)c(C)c1,didier14,0,0,0,0
"2,4-DICHLOROTOLUENE",369.3,1,Cc1ccc(Cl)cc1Cl,didier14,0,0,0,0
"3,4-DICHLOROANILINE",439.0,1,Nc1ccc(Cl)c(Cl)c1,didier14,0,0,0,0
"2,5-XYLENOL",360.0,1,Cc1ccc(C)c(O)c1,didier14,0,0,0,0
DIETHYL OXALATE,339.2,1,CCOC(=O)C(=O)OCC,didier14,0,0,0,0
BIS-(2-HYDROXYETHYL) TEREPHTHALATE,545.0,1,O=C(OCCO)c1ccc(C(=O)OCCO)cc1,didier14,0,0,0,0
"1,2,4,5-TETRAMETHYLBENZENE",328.0,1,Cc1cc(C)c(C)cc1C,didier14,0,0,0,0
"1,2,3-TRICHLOROPROPANE",347.0,1,ClCC(Cl)CCl,didier14,0,0,0,0
3-PENTANONE,286.0,1,CCC(=O)CC,didier14,0,0,0,0
"1,3-DICHLORO-2-PROPANOL",358.1,1,OC(CCl)CCl,didier14,0,0,0,0
"3-CHLORO-1,2-PROPANEDIOL",408.1,1,OCC(O)CCl,didier14,0,0,0,0
METHYL CHLOROACETATE,324.8,1,COC(=O)CCl,didier14,0,0,0,0
METHYL GLYCOLATE,339.1,1,COC(=O)CO,didier14,0,0,0,0
METHYLCYCLOPENTANE,246.0,1,CC1CCCC1,didier14,0,0,0,0
"1-CHLORO-2,4-DINITROBENZENE",467.0,1,O=[N+]([O-])c1ccc(Cl)c([N+](=O)[O-])c1,didier14,0,0,0,0
ETHYL ISOBUTYRATE,287.0,1,CCOC(=O)C(C)C,didier14,0,0,0,0
ETHYL LACTATE,319.1,1,CCOC(=O)C(C)O,didier14,0,0,0,0
ITACONIC acid,488.0,1,C=C(CC(=O)O)C(=O)O,didier14,0,0,0,1
2-ETHYL-1-BUTANOL,330.0,1,CCC(CC)CO,didier14,0,0,0,0
tert-BUTYLBENZENE,333.1,1,CC(C)(C)c1ccccc1,didier14,0,0,0,0
p-tert-BUTYLCATECHOL,403.0,1,CC(C)(C)c1ccc(O)c(O)c1,didier14,0,0,0,0
p-DIISOPROPYLBENZENE HYDROPEROXIDE,465.0,1,CC(C)c1ccc(C(C)C)cc1.[O-]O,didier14,0,0,0,0
NITROBENZENE,361.0,1,O=[N+]([O-])c1ccccc1,didier14,0,0,0,0
m-NITROTOLUENE,375.0,1,Cc1cccc([N+](=O)[O-])c1,didier14,0,0,0,0
METHYL tert-PENTYL ETHER,262.1,1,CCC(C)(C)OC,didier14,0,0,0,0
"1,2-DICHLORO-4-NITROBENZENE",396.1,1,O=[N+]([O-])c1ccc(Cl)c(Cl)c1,didier14,0,0,0,0
m-DINITROBENZENE,423.1,1,O=[N+]([O-])c1cccc([N+](=O)[O-])c1,didier14,0,0,0,0
DIALLYL MALEATE,393.0,1,C=CCOC(=O)/C=C\C(=O)OCC=C,didier14,0,0,0,0
2-HYDROXYPROPYL ACRYLATE,372.1,1,C=CC(=O)OCC(C)O,didier14,0,0,0,0
p-NITROTOLUENE,379.0,1,Cc1ccc([N+](=O)[O-])cc1,didier14,0,0,0,0
Propane,169.0,1,CCC,pan07,0,0,0,0
Butane,213.0,1,CCCC,pan07,0,0,0,0
Pentane,224.0,1,CCCCC,pan07,0,0,0,0
"2,2-Dimethylpropane",208.0,1,CC(C)(C)C,pan07,0,0,0,0
Hexane,250.0,1,CCCCCC,pan07,0,0,0,0
"2,2-Dimethylbutane",225.0,1,CCC(C)(C)C,pan07,0,0,0,0
"2,3-Dimethylbutane",244.0,1,CC(C)C(C)C,pan07,0,0,0,0
Heptane,269.0,1,CCCCCCC,pan07,0,0,0,0
"3,3-Dimethylpentane",254.0,1,CCC(C)(C)CC,pan07,0,0,0,0
"2,4-Dimethylpentane",261.0,1,CC(C)CC(C)C,pan07,0,0,0,0
3-Ethylpentane,255.0,1,CCC(CC)CC,pan07,0,0,0,0
"2,2-Dimethylpentane",250.0,1,CCCC(C)(C)C,pan07,0,0,0,0
"2,2,4-Trimethylpentane",261.0,1,CC(C)CC(C)(C)C,pan07,0,0,0,0
"2,2,3-Trimethylpentane",270.0,1,CCC(C)C(C)(C)C,pan07,0,0,0,0
3-Methyl-3-ethylpentane,276.0,1,CCC(C)(CC)CC,pan07,0,0,0,0
3-Ethylhexane,278.0,1,CCCC(CC)CC,pan07,0,0,0,0
3-Methylheptane,279.0,1,CCCCC(C)CC,pan07,0,0,0,0
"3,3-Dimethylhexane",272.0,1,CCCC(C)(C)CC,pan07,0,0,0,0
"2,3-Dimethylhexane",283.0,1,CCCC(C)C(C)C,pan07,0,0,0,0
"2,4-Dimethylhexane",283.0,1,CCC(C)CC(C)C,pan07,0,0,0,0
"2,5-Dimethylhexane",271.0,1,CC(C)CCC(C)C,pan07,0,0,0,0
Nonane,304.0,1,CCCCCCCCC,pan07,0,0,0,0
"3,4-Dimethylheptane",288.0,1,CCCC(C)C(C)CC,pan07,0,0,0,0
"2,3-Dimethylheptane",288.0,1,CCCCC(C)C(C)C,pan07,0,0,0,0
"2,6-Dimethylheptane",299.0,1,CC(C)CCCC(C)C,pan07,0,0,0,0
"2,3-Dimethyl-3-ethylpentane",288.0,1,CCC(C)(CC)C(C)C,pan07,0,0,0,0
"2,2,5-Trimethylhexane",286.0,1,CC(C)CCC(C)(C)C,pan07,0,0,0,0
3-Methyloctane,297.0,1,CCCCCC(C)CC,pan07,0,0,0,0
"2,2,3,4-Tetramethylpentane",284.0,1,CC(C)C(C)C(C)(C)C,pan07,0,0,0,0
"2,2,4,4-Tetramethylpentane",276.0,1,CC(C)(C)CC(C)(C)C,pan07,0,0,0,0
4-Ethylheptane,288.0,1,CCCC(CC)CCC,pan07,0,0,0,0
"2,2-Dimethylheptane",297.0,1,CCCCCC(C)(C)C,pan07,0,0,0,0
"2,4-Dimethylheptane",288.0,1,CCCC(C)CC(C)C,pan07,0,0,0,0
"2,3,4-Trimethylhexane",288.0,1,CCC(C)C(C)C(C)C,pan07,0,0,0,0
"3,3,4-Trimethylhexane",288.0,1,CCC(C)C(C)(C)CC,pan07,0,0,0,0
"2,3,5-Trimethylhexane",288.0,1,CC(C)CC(C)C(C)C,pan07,0,0,0,0
"2,2,3-Trimethylhexane",288.0,1,CCCC(C)C(C)(C)C,pan07,0,0,0,0
"3,5-Dimethylheptane",288.0,1,CCC(C)CC(C)CC,pan07,0,0,0,0
Tetraethylmethane,294.0,1,CCC(CC)(CC)CC,pan07,0,0,0,0
Decane,319.0,1,CCCCCCCCCC,pan07,0,0,0,0
4-Ethyloctane,314.0,1,CCCCC(CC)CCC,pan07,0,0,0,0
"2,4,5-Trimethylheptane",304.0,1,CCC(C)C(C)CC(C)C,pan07,0,0,0,0
"2,3-Dimethyloctane",314.0,1,CCCCCC(C)C(C)C,pan07,0,0,0,0
"3,3-Dimethyloctane",314.0,1,CCCCCC(C)(C)CC,pan07,0,0,0,0
"3,5-Dimethyloctane",314.0,1,CCCC(C)CC(C)CC,pan07,0,0,0,0
"2,6-Dimethyloctane",314.0,1,CCC(C)CCCC(C)C,pan07,0,0,0,0
"3-Ethyl-2,2-dimethylhexane",311.0,1,CCCC(CC)C(C)(C)C,pan07,0,0,0,0
"3,3,4,4-Tetramethylhexane",304.0,1,CCC(C)(C)C(C)(C)CC,pan07,0,0,0,0
"2,2,5,5-Tetramethylhexane",304.0,1,CC(C)(C)CCC(C)(C)C,pan07,0,0,0,0
"2,3,3,4-Tetramethylhexane",304.0,1,CCC(C)C(C)(C)C(C)C,pan07,0,0,0,0
"2,3,4,5-Tetramethylhexane",304.0,1,CC(C)C(C)C(C)C(C)C,pan07,0,0,0,0
"2,2,4,4-Tetramethylhexane",304.0,1,CCC(C)(C)CC(C)(C)C,pan07,0,0,0,0
"3,3,5-Trimethylheptane",304.0,1,CCC(C)CC(C)(C)CC,pan07,0,0,0,0
"2,3,5-Trimethylheptane",304.0,1,CCC(C)CC(C)C(C)C,pan07,0,0,0,0
3-Ethyl-3-methylheptane,314.0,1,CCCCC(C)(CC)CC,pan07,0,0,0,0
4-Ethyl-3-methylheptane,314.0,1,CCCC(CC)C(C)CC,pan07,0,0,0,0
2-Methylnonane,314.0,1,CCCCCCCC(C)C,pan07,0,0,0,0
Undecane,333.0,1,CCCCCCCCCCC,pan07,0,0,0,0
Dodecane,344.0,1,CCCCCCCCCCCC,pan07,0,0,0,0
Tetradecane,372.0,1,CCCCCCCCCCCCCC,pan07,0,0,0,0
Hexadecane,408.0,1,CCCCCCCCCCCCCCCC,pan07,0,0,0,0
"2,2,4,4,6,8,8-Heptamethylnonane",368.0,1,CC(CC(C)(C)C)CC(C)(C)CC(C)(C)C,pan07,0,0,0,0
2-Methylbutane,216.0,1,CCC(C)C,pan07,0,0,0,0
2-Methylpentane,250.0,1,CCCC(C)C,pan07,0,0,0,0
"2,3,3-Trimethylpentane",273.0,1,CCC(C)(C)C(C)C,pan07,0,0,0,0
2-Methylheptane,277.0,1,CCCCCC(C)C,pan07,0,0,0,0
"2,2-Dimethylhexane",269.0,1,CCCCC(C)(C)C,pan07,0,0,0,0
"3-Ethyl-2,2-dimethylpentane",286.0,1,CCC(CC)C(C)(C)C,pan07,0,0,0,0
"2,4,4-Trimethylhexane",288.0,1,CCC(C)(C)CC(C)C,pan07,0,0,0,0
"4,4-Dimethylheptane",288.0,1,CCCC(C)(C)CCC,pan07,0,0,0,0
"2,3,3-Trimethylhexane",288.0,1,CCCC(C)(C)C(C)C,pan07,0,0,0,0
"2,4,6-Trimethylheptane",304.0,1,CC(C)CC(C)CC(C)C,pan07,0,0,0,0
"3-Ethyl-2,3,4-trimethylpentane",304.0,1,CCC(C)(C(C)C)C(C)C,pan07,0,0,0,0
"2,3,4,4-Tetramethylhexane",304.0,1,CCC(C)(C)C(C)C(C)C,pan07,0,0,0,0
"3,4,5-Trimethylheptane",304.0,1,CCC(C)C(C)C(C)CC,pan07,0,0,0,0
3-Ethyl-5-methylheptane,304.0,1,CCC(C)CC(CC)CC,pan07,0,0,0,0
5-Methylnonane,312.0,1,CCCCC(C)CCCC,pan07,0,0,0,0
2-Methylpropane,186.0,1,CC(C)C,pan07,0,0,0,0
3-Methylpentane,241.0,1,CCC(C)CC,pan07,0,0,0,0
"2,3-Dimethylpentane",258.0,1,CCC(C)C(C)C,pan07,0,0,0,0
3-Methylhexane,258.0,1,CCCC(C)CC,pan07,0,0,0,0
"2,2,3-Trimethylbutane",247.0,1,CC(C)C(C)(C)C,pan07,0,0,0,0
Octane,286.0,1,CCCCCCCC,pan07,0,0,0,0
"2,2,3,3-Tetramethylbutane",273.0,1,CC(C)(C)C(C)(C)C,pan07,0,0,0,0
"2,3,4-Trimethylpentane",273.0,1,CC(C)C(C)C(C)C,pan07,0,0,0,0
"3,4-Dimethylhexane",277.0,1,CCC(C)C(C)CC,pan07,0,0,0,0
3-Ethyl-4-methylhexane,288.0,1,CCC(C)C(CC)CC,pan07,0,0,0,0
"2,2,4-Trimethylhexane",288.0,1,CCC(C)CC(C)(C)C,pan07,0,0,0,0
"2,7-Dimethyloctane",314.0,1,CC(C)CCCCC(C)C,pan07,0,0,0,0
"2,2,3,4-Tetramethylhexane",304.0,1,CCC(C)C(C)C(C)(C)C,pan07,0,0,0,0
Tridecane,352.0,1,CCCCCCCCCCCCC,pan07,0,0,0,0
Pentadecane,388.0,1,CCCCCCCCCCCCCCC,pan07,0,0,0,0
1-Chlorobutane,262.1,1,CCCCCl,caroll15,0,0,0,0
1-Chloro-3-methylbutane,289.2,1,CC(C)CCCl,caroll15,0,0,0,0
1-Chloro-2-methylbutane,283.0,1,CCC(C)CCl,caroll15,0,0,0,0
1-Chloropentane,284.3,1,CCCCCCl,caroll15,0,0,0,0
"1-Chloro-3,3-dimethylbutane",292.2,1,CC(C)(C)CCCl,caroll15,0,0,0,0
"1-Chloro-2,2-dimethylbutane",292.2,1,CCC(C)(C)CCl,caroll15,0,0,0,0
3-(Chloromethyl)pentane,298.2,1,CCC(CC)CCl,caroll15,0,0,0,0
1-Chloro-2-ethylbutane,298.2,1,CCC(CC)CCl,caroll15,0,0,0,0
1-Chloro-2-methylpentane,298.2,1,CCCC(C)CCl,caroll15,0,0,0,0
1-Chloro-3-methylpentane,298.2,1,CCC(C)CCCl,caroll15,0,0,0,0
1-Chlorohexane,299.9,1,CCCCCCCl,caroll15,0,0,0,0
1-Chloro-3-methylhexane,312.4,1,CCCC(C)CCCl,caroll15,0,0,0,0
1-Chloroheptane,314.9,1,CCCCCCCCl,caroll15,0,0,0,0
1-Chloro-5-methylheptane,325.7,1,CCC(C)CCCCCl,caroll15,0,0,0,0
1-Chlorooctane,334.2,1,CCCCCCCCCl,caroll15,0,0,0,0
1-Chlorodecane,356.2,1,CCCCCCCCCCCl,caroll15,0,0,0,0
1-Chloroundecane,367.6,1,CCCCCCCCCCCCl,caroll15,0,0,0,0
1-Chlorododecane,377.7,1,CCCCCCCCCCCCCl,caroll15,0,0,0,0
1-Chlorotetradecane,403.2,1,CCCCCCCCCCCCCCCl,caroll15,0,0,0,0
1-Chlorohexadecane,411.3,1,CCCCCCCCCCCCCCCCCl,caroll15,0,0,0,0
1-Chloroheptadecane,418.4,1,CCCCCCCCCCCCCCCCCCl,caroll15,0,0,0,0
1-Chlorooctadecane,457.2,1,CCCCCCCCCCCCCCCCCCCl,caroll15,0,0,0,0
3-Chloropentane,283.0,1,CCC(Cl)CC,caroll15,0,0,0,0
3-Chloro-2-methylpentane,294.0,1,CCC(Cl)C(C)C,caroll15,0,0,0,0
2-Chloro-4-methylpentane,294.0,1,CC(C)CC(C)Cl,caroll15,0,0,0,0
2-Chlorohexane,298.2,1,CCCCC(C)Cl,caroll15,0,0,0,0
3-Chlorohexane,298.2,1,CCCC(Cl)CC,caroll15,0,0,0,0
2-Chloro-5-methylhexane,308.4,1,CC(C)CCC(C)Cl,caroll15,0,0,0,0
4-Chloroheptane,312.4,1,CCCC(Cl)CCC,caroll15,0,0,0,0
3-Chloroheptane,312.4,1,CCCCC(Cl)CC,caroll15,0,0,0,0
2-Chloroheptane,312.4,1,CCCCCC(C)Cl,caroll15,0,0,0,0
3-Chlorooctane,325.7,1,CCCCCC(Cl)CC,caroll15,0,0,0,0
2-Chlorononane,338.3,1,CCCCCCCC(C)Cl,caroll15,0,0,0,0
5-Chlorononane,338.3,1,CCCCC(Cl)CCCC,caroll15,0,0,0,0
(S)-6-Chloro-2-methylnonane,346.9,1,CCC[C@H](Cl)CCCC(C)C,caroll15,0,0,0,0
2-Chlorodecane,350.2,1,CCCCCCCCC(C)Cl,caroll15,0,0,0,0
2-Chlorododecane,372.7,1,CCCCCCCCCCC(C)Cl,caroll15,0,0,0,0
5-Chlorododecane,372.6,1,CCCCCCCC(Cl)CCCC,caroll15,0,0,0,0
5-Chlorotridecane,383.2,1,CCCCCCCCC(Cl)CCCC,caroll15,0,0,0,0
"2-Chloro-2,3-dimethylbutane",288.1,1,CC(C)C(C)(C)Cl,caroll15,0,0,0,0
3-Chloro-3-methylpentane,282.6,1,CCC(C)(Cl)CC,caroll15,0,0,0,0
2-Chloro-2-methylpentane,294.0,1,CCCC(C)(C)Cl,caroll15,0,0,0,0
"2-Chloro-2,4-dimethylpentane",302.9,1,CC(C)CC(C)(C)Cl,caroll15,0,0,0,0
3-Chloro-3-methylhexane,306.7,1,CCCC(C)(Cl)CC,caroll15,0,0,0,0
"2-Chloro-2,3-dimethylpentane",302.9,1,CCC(C)C(C)(C)Cl,caroll15,0,0,0,0
"2-Chloro-2,3,3-trimethylbutane",297.5,1,CC(C)(C)C(C)(C)Cl,caroll15,0,0,0,0
3-Chloro-3-ethylpentane,306.7,1,CCC(Cl)(CC)CC,caroll15,0,0,0,0
"2-Chloro-2,4,4-trimethylpentane",311.5,1,CC(C)(C)CC(C)(C)Cl,caroll15,0,0,0,0
"3-Chloro-2,3-dimethylhexane",316.7,1,CCCC(C)(Cl)C(C)C,caroll15,0,0,0,0
3-Chloro-3-methylheptane,320.3,1,CCCCC(C)(Cl)CC,caroll15,0,0,0,0
2-Chloro-2-methylheptane,320.3,1,CCCCCC(C)(C)Cl,caroll15,0,0,0,0
"3-Chloro-2,2,3-trimethylhexane",324.8,1,CCCC(C)(Cl)C(C)(C)C,caroll15,0,0,0,0
3-Chloro-3-ethylheptane,333.1,1,CCCCC(Cl)(CC)CC,caroll15,0,0,0,0
3-Chloro-3-methyloctane,333.1,1,CCCCCC(C)(Cl)CC,caroll15,0,0,0,0
"6-Chloro-2,6-dimethyloctane",342.0,1,CCC(C)(Cl)CCCC(C)C,caroll15,0,0,0,0
2-Chloro-2-methylnonane,345.3,1,CCCCCCCC(C)(C)Cl,caroll15,0,0,0,0
3-Chloro-3-methylnonane,345.3,1,CCCCCCC(C)(Cl)CC,caroll15,0,0,0,0
"1-Chloro-2,3-dimethylbutane",294.0,1,CC(C)C(C)CCl,caroll15,0,0,0,0
1-Chloro-4-methylpentane,298.2,1,CC(C)CCCCl,caroll15,0,0,0,0
3-(Chloromethyl)heptane,325.7,1,CCCCC(CC)CCl,caroll15,0,0,0,0
1-Chlorononane,347.2,1,CCCCCCCCCCl,caroll15,0,0,0,0
"1-Chloro-3,7-dimethyloctane",346.9,1,CC(C)CCCC(C)CCCl,caroll15,0,0,0,0
1-Chlorotridecane,387.0,1,CCCCCCCCCCCCCCl,caroll15,0,0,0,0
1-Chloropentadecane,403.8,1,CCCCCCCCCCCCCCCCl,caroll15,0,0,0,0
1-Chloroeicosane,437.2,1,CCCCCCCCCCCCCCCCCCCCCl,caroll15,0,0,0,0
2-Chlorobutane,258.2,1,CCC(C)Cl,caroll15,0,0,0,0
2-Chloro-3-methylbutane,278.6,1,CC(C)C(C)Cl,caroll15,0,0,0,0
2-Chloropentane,274.2,1,CCCC(C)Cl,caroll15,0,0,0,0
"3-Chloro-2,2-dimethylbutane",288.1,1,CC(Cl)C(C)(C)C,caroll15,0,0,0,0
"4-Chloro-2,2-dimethylpentane",302.9,1,CC(Cl)CC(C)(C)C,caroll15,0,0,0,0
2-Chloro-6-methylheptane,322.0,1,CC(C)CCCC(C)Cl,caroll15,0,0,0,0
2-Chlorooctane,325.7,1,CCCCCCC(C)Cl,caroll15,0,0,0,0
5-Chloroundecane,361.7,1,CCCCCCC(Cl)CCCC,caroll15,0,0,0,0
2-Chloro-2-methylbutane,276.5,1,CCC(C)(C)Cl,caroll15,0,0,0,0
"3-Chloro-2,3-dimethylpentane",302.9,1,CCC(C)(Cl)C(C)C,caroll15,0,0,0,0
2-Chloro-2-methylhexane,306.7,1,CCCCC(C)(C)Cl,caroll15,0,0,0,0
"2-Chloro-2,5-dimethylhexane",316.7,1,CC(C)CCC(C)(C)Cl,caroll15,0,0,0,0
4-Chloro-4-methylheptane,320.3,1,CCCC(C)(Cl)CCC,caroll15,0,0,0,0
"3-Chloro-3-ethyl-2,2-dimethylpentane",324.8,1,CCC(Cl)(CC)C(C)(C)C,caroll15,0,0,0,0
2-Chloro-2-methyloctane,333.1,1,CCCCCCC(C)(C)Cl,caroll15,0,0,0,0
4-Chloro-4-methyloctane,333.1,1,CCCCC(C)(Cl)CCC,caroll15,0,0,0,0
Methyltrichlorosilane,276.15,1,C[Si](Cl)(Cl)Cl,didier12,1,1,0,0
Vinyltrichlorosilane,294.15,1,C=C[Si](Cl)(Cl)Cl,didier12,1,1,0,0
Dichloromethylmethyldichlorosilane,301.15,1,C[Si](Cl)(Cl)C(Cl)Cl,didier12,1,1,0,0
Ethyltrichlorosilane,263.15,1,CC[Si](Cl)(Cl)Cl,didier12,1,1,0,0
Dimethylchlorosilane,245.15,1,C[SiH](C)Cl,didier12,1,1,0,0
Ethylsilane,213.15,1,CC[SiH3],didier12,1,1,0,0
"1,1,1-Trifluoropropyltrichlorosilane",288.15,1,CC(C(F)(F)F)[Si](Cl)(Cl)Cl,didier12,1,1,0,0
Allyltrichlorosilane,304.15,1,C=CC[Si](Cl)(Cl)Cl,didier12,1,1,0,0
Methylvinyldichlorosilane,272.15,1,CC=C[SiH](Cl)Cl,didier12,1,1,0,0
3-Chloropropyltrichlorosilane,357.15,1,ClCCC[Si](Cl)(Cl)Cl,didier12,1,1,0,0
n-Propyltrichlorosilane,310.15,1,CCC[Si](Cl)(Cl)Cl,didier12,1,1,0,0
Chloromethyldimethylchlorosilane,295.15,1,C[Si](C)(Cl)CCl,didier12,1,1,0,0
Trimethylbromosilane,270.15,1,C[Si](C)(C)Br,didier12,1,1,0,0
Trimethylchlorosilane,255.15,1,C[Si](C)(C)Cl,didier12,1,1,0,0
Trimethylfluorosilane,238.15,1,C[Si](C)(C)F,didier12,1,1,0,0
Trimethoxysilane,264.15,1,CO[SiH](OC)OC,didier12,1,1,0,0
Cyanoethylmethyldichlorosilane,333.15,1,C[Si](Cl)(Cl)CCC#N,didier12,1,1,0,0
Allylmethyldichlorosilane,300.15,1,C=CCC[SiH](Cl)Cl,didier12,1,1,0,0
3-Chloropropylmethyldichlorosilane,359.15,1,C[Si](Cl)(Cl)CCCCl,didier12,1,1,0,0
t-Butyltrichlorosilane,294.15,1,CC(C)(C)[Si](Cl)(Cl)Cl,didier12,1,1,0,0
Isobutyltrichlorosilane,310.15,1,CC(C)C[Si](Cl)(Cl)Cl,didier12,1,1,0,0
n-Butyltrichlorosilane,327.15,1,CCCC[Si](Cl)(Cl)Cl,didier12,1,1,0,0
Trimethylsilylisothiocyanate,308.15,1,C[Si](C)(C)N=C=S,didier12,1,1,0,0
n-Propylmethyldichlorosilane,300.15,1,CCC[Si](C)(Cl)Cl,didier12,1,1,0,0
Bromomethyltrimethylsilane,289.15,1,C[Si](C)(C)CBr,didier12,1,1,0,0
Ethyldimethylchlorosilane,269.15,1,CC[Si](C)(C)Cl,didier12,1,1,0,0
Methoxytrimethylsilane,243.15,1,CO[Si](C)(C)C,didier12,1,1,0,0
Dimethyldimethoxysilane,265.15,1,CO[Si](C)(C)OC,didier12,1,1,0,0
Methyltrimethoxysilane,284.15,1,CO[Si](C)(OC)OC,didier12,1,1,0,0
Tetramethoxysilane,294.15,1,CO[Si](OC)(OC)OC,didier12,1,1,0,0
Tetramethylsilane,245.15,1,C[Si](C)(C)C,didier12,1,1,0,0
Diethylsilane,253.15,1,CC[SiH2]CC,didier12,1,1,0,0
"(N,N-Dimethylamino)dimethylsilane",260.15,1,CN(C)[SiH](C)C,didier12,1,1,0,0
Tetraisocyanatosilane,323.15,1,O=C=N[Si](N=C=O)(N=C=O)N=C=O,didier12,1,1,0,0
Cyclopentyltrichlorosilane,350.15,1,Cl[Si](Cl)(Cl)C1CCCC1,didier12,1,1,0,0
Trimethylsilyltrifluoroacetate,273.15,1,C[Si](C)(C)OC(=O)C(F)(F)F,didier12,1,1,0,0
Cyclopentyldichlorosilane,316.15,1,Cl[SiH](Cl)C1CCCC1,didier12,1,1,0,0
3-Chloro-2-methylpropylmethyldichlorosilane,363.15,1,CC(CCl)C[Si](C)(Cl)Cl,didier12,1,1,0,0
Methylvinyldimethoxysilane,277.15,1,CC=C[SiH](OC)OC,didier12,1,1,0,0
Vinyltrimethoxysilane,296.15,1,C=C[Si](OC)(OC)OC,didier12,1,1,0,0
Trimethylvinylsilane,239.15,1,CC(C)=C(C)[SiH3],didier12,1,1,0,0
Diethylmethylchlorosilane,288.15,1,CC[Si](C)(Cl)CC,didier12,1,1,0,0
Chloromethyldimethylethoxysilane,299.15,1,CCO[Si](C)(C)CCl,didier12,1,1,0,0
Ethoxytrimethylsilane,246.15,1,CCO[Si](C)(C)C,didier12,1,1,0,0
Ethyltrimethoxysilane,300.15,1,CC[Si](OC)(OC)OC,didier12,1,1,0,0
"(N,N-Dimethylamino)trimethylsilane",254.15,1,CN(C)[Si](C)(C)C,didier12,1,1,0,0
Pentamethyldisiloxane,254.15,1,C[SiH](C)O[Si](C)(C)C,didier12,1,1,0,0
Phenyldichlorosilane,333.15,1,Cl[SiH](Cl)c1ccccc1,didier12,1,1,0,0
Phenylsilane,281.15,1,[SiH3]c1ccccc1,didier12,1,1,0,0
1-Hexenyltrichlorosilane,333.15,1,CCCCC=C[Si](Cl)(Cl)Cl,didier12,1,1,0,0
Cyclohexyltrichlorosilane,358.15,1,Cl[Si](Cl)(Cl)C1CCCCC1,didier12,1,1,0,0
Bis(chloromethyl)tetramethyldisiloxane,346.15,1,C[Si](C)(C)O[Si](C)(CCl)CCl,didier12,1,1,0,0
Propargyloxytrimethylsilane,300.15,1,C#CCO[Si](C)(C)C,didier12,1,1,0,0
Divinyldimethylsilane,281.15,1,C=C[Si](C)(C)C=C,didier12,1,1,0,0
n-Hexyltrichlorosilane,358.15,1,CCCCCC[Si](Cl)(Cl)Cl,didier12,1,1,0,0
Hexyldichlorosilane,337.15,1,CCCCCC[SiH](Cl)Cl,didier12,1,1,0,0
"1,1-Dimethyl-1-sila-2-oxacyclohexane",287.15,1,C[Si]1(C)CCCCO1,didier12,1,1,0,0
Acetoxymethyltrimethylsilane,293.15,1,CC(=O)OC[Si](C)(C)C,didier12,1,1,0,0
Allyltrimethylsilane,280.15,1,C=CC[Si](C)(C)C,didier12,1,1,0,0
Triethylchlorosilane,303.15,1,CC[Si](Cl)(CC)CC,didier12,1,1,0,0
t-Butyldimethylchlorosilane,295.15,1,CC(C)(C)[Si](C)(C)Cl,didier12,1,1,0,0
3-Chloropropylmethyldimethoxysilane,318.15,1,CO[Si](C)(CCCCl)OC,didier12,1,1,0,0
Trimethyl-n-propoxysilane,283.15,1,CCCO[Si](C)(C)C,didier12,1,1,0,0
t-Butyldimethylsilanol,318.15,1,CC(C)(C)[Si](C)(C)O,didier12,1,1,0,0
Dimethyldiethoxysilane,284.15,1,CCO[Si](C)(C)OCC,didier12,1,1,0,0
Triethylsilane,270.15,1,CC[SiH](CC)CC,didier12,1,1,0,0
Hexylsilane,285.15,1,CCCCCC[SiH3],didier12,1,1,0,0
t-Butyldimethylsilane,251.15,1,C[SiH](C)C(C)(C)C,didier12,1,1,0,0
Bis(dimethylamino)dimethylsilane,266.15,1,CN(C)[Si](C)(C)N(C)C,didier12,1,1,0,0
Hexamethylcyclotrisiloxane,305.15,1,C[Si]1(C)O[Si](C)(C)O[Si](C)(C)O1,didier12,1,1,0,0