compound,flashpoint,pure substance,smiles,source,is_silicon,is_metallic,is_tin,is_acid
"1,1':2',1''-Terphenyl",386.15,1,c1ccc(-c2ccccc2-c2ccccc2)cc1,le15,0,0,0,0
"1,1':3',1''-Terphenyl",464.15,1,c1ccc(-c2cccc(-c3ccccc3)c2)cc1,le15,0,0,0,0
"1,1':4',1''-Terphenyl",480.15,1,c1ccc(-c2ccc(-c3ccccc3)cc2)cc1,le15,0,0,0,0
"Butanedioic acid, dibutyl ester",417.15,1,CCCCOC(=O)CCC(=O)OCCCC,le15,0,0,0,1
"3H-Pyrazol-3-one, 1,2-dihydro-1,5-dimethyl-4-(1-methylethyl)-2-phenyl-",396.95,1,Cc1c(C(C)C)c(=O)n(-c2ccccc2)n1C,le15,0,0,0,0
dibutan-2-yl butanedioate,382.95,1,CCC(C)OC(=O)CCC(=O)OC(C)CC,le15,0,0,0,0
Dodecanedioic acid,493.15,1,O=C(O)CCCCCCCCCCC(=O)O,le15,0,0,0,1
bis(3-methylbutyl) oxalate,387.45,1,CC(C)CCOC(=O)C(=O)OCCC(C)C,le15,0,0,0,0
diethyl 2-(3-methylbutyl)propanedioate,382.95,1,CCOC(=O)C(CCC(C)C)C(=O)OCC,le15,0,0,0,0
"Sebacic acid, dimethyl ester (8CI)",418.15,1,COC(=O)CCCCCCCCC(=O)OC,le15,0,0,0,1
"Decanedioic acid, dihydrazide",538.55,1,NNC(=O)CCCCCCCCC(=O)NN,le15,0,0,0,1
"Phosphorotrithioic acid, O,S,S-triethyl ester",400.85,1,CCOP(=S)(SCC)SCC,le15,0,0,0,1
1-heptylsulfanylheptane,422.05,1,CCCCCCCSCCCCCCC,le15,0,0,0,0
"2,3,4,5,6-pentafluorobenzoyl chloride",322.85,1,O=C(Cl)c1c(F)c(F)c(F)c(F)c1F,le15,0,0,0,0
"Benzoyl chloride, 3,5-dinitro-",431.95,1,O=C(Cl)c1cc([N+](=O)[O-])cc([N+](=O)[O-])c1,le15,0,0,0,0
"2H-1,2,4-Benzothiadiazine, 7-chloro-3-methyl-, 1,1-dioxide",477.85,1,CC1=Nc2ccc(Cl)cc2S(=O)(=O)N1,le15,0,0,0,0
"Pyridine, 2-chloro-6-(trichloromethyl)-",408.05,1,Clc1cccc(C(Cl)(Cl)Cl)n1,le15,0,0,0,0
"Benzenamine, 2,3,5,6-tetrachloro- (9CI)",407.85,1,Nc1c(Cl)c(Cl)cc(Cl)c1Cl,le15,0,0,0,0
2-(2-carbonochloridoyloxyethoxy)ethyl carbonochloridate,391.35,1,O=C(Cl)OCCOCCOC(=O)Cl,le15,0,0,0,0
"Benzaldehyde, 3-bromo-4-hydroxy-5-methoxy-",402.05,1,COc1cc(C=O)cc(Br)c1O,le15,0,0,0,0
"Ethane, 1,1'-oxybis(2-(2-chloroethoxy)- (9CI)",381.85,1,ClCCOCCOCCOCCCl,le15,0,0,0,0
"Bicyclo(2.2.1)heptan-2-one, 3-bromo-1,7,7-trimethyl-",308.95,1,CC12CCC(C(Br)C1=O)C2(C)C,le15,0,0,0,0
"Benzimidazole, 5-nitro-2-(trifluoromethyl)-",446.65,1,O=[N+]([O-])c1ccc2nc(C(F)(F)F)[nH]c2c1,le15,0,0,0,0
"3-Isoxazolecarboxylic acid, 5-methyl-, 2-(phenylmethyl)hydrazide",465.55,1,Cc1cc(C(=O)NNCc2ccccc2)no1,le15,0,0,0,1
"Benzeneethanamine, N-ethyl-alpha-methyl-3-(trifluoromethyl)- (9CI)",373.95,1,CCNC(C)Cc1cccc(C(F)(F)F)c1,le15,0,0,0,0
"Pyridine, 2,6-diphenyl-",439.55,1,c1ccc(-c2cccc(-c3ccccc3)n2)cc1,le15,0,0,0,0
"2H-1-Benzopyran-2-one, 7-(diethylamino)-4-methyl-",425.15,1,CCN(CC)c1ccc2c(C)cc(=O)oc2c1,le15,0,0,0,0
"Benzenesulfonamide, 4-amino-N-(aminothioxomethyl)- (9CI)",503.55,1,NC(=S)NS(=O)(=O)c1ccc(N)cc1,le15,0,0,0,0
"3H-Pyrazol-3-one, 4-(dimethylamino)-1,2-dihydro-1,5-dimethyl-2-phenyl-",399.05,1,Cc1c(N(C)C)c(=O)n(-c2ccccc2)n1C,le15,0,0,0,0
"Butanenitrile, 4-(triethoxysilyl)-",388.85,1,CCO[Si](CCCC#N)(OCC)OCC,le15,1,1,0,0
2-Amino-4'-chlorobenzophenone,480.85,1,Nc1ccccc1C(=O)c1ccc(Cl)cc1,le15,0,0,0,0
"Phenol, 2,3,4,6-tetrachloro-",388.85,1,Oc1c(Cl)cc(Cl)c(Cl)c1Cl,le15,0,0,0,0
"Phenol, 2,3,5,6-tetrachloro-",384.85,1,Oc1c(Cl)c(Cl)cc(Cl)c1Cl,le15,0,0,0,0
"Phenol, 2,3,4,5-tetrachloro-",401.95,1,Oc1cc(Cl)c(Cl)c(Cl)c1Cl,le15,0,0,0,0
"Acetamide, N-(4-bromophenyl)-2-fluoro- (9CI)",447.45,1,O=C(CF)Nc1ccc(Br)cc1,le15,0,0,0,0
"2-iodo-1,3-dimethylbenzene",375.15,1,Cc1cccc(C)c1I,le15,0,0,0,0
"2,2,3,3,4,4,5,5-octafluoropentan-1-ol",348.75,1,OCC(F)(F)C(F)(F)C(F)(F)C(F)F,le15,0,0,0,0
"Benzenamine, N,N-bis(2-chloroethyl)-4-methyl- (9CI)",430.65,1,Cc1ccc(N(CCCl)CCCl)cc1,le15,0,0,0,0
"Succinimide, 2-methylene-N-(m-nitrophenyl)-",479.35,1,C=C1CC(=O)N(c2cccc([N+](=O)[O-])c2)C1=O,le15,0,0,0,0
"Urea, 1,1-dimethyl-3-(alpha,alpha,alpha-trifluoro-m-tolyl)-",423.15,1,CN(C)C(=O)Nc1cccc(C(F)(F)F)c1,le15,0,0,0,0
"1,6-Pyrenequinone",450.95,1,O=c1ccc2ccc3c(=O)ccc4ccc1c2c43,le15,0,0,0,0
"1,8-Pyrenequinone",450.95,1,O=c1ccc2ccc3ccc(=O)c4ccc1c2c34,le15,0,0,0,0
"2,4,6(1H,3H,5H)-Pyrimidinetrione, 5-ethyl-5-phenyl-",284.15,1,CCC1(c2ccccc2)C(=O)NC(=O)NC1=O,le15,0,0,0,0
"2,6-Piperidinedione, 3-(4-aminophenyl)-3-ethyl-",503.55,1,CCC1(c2ccc(N)cc2)CCC(=O)NC1=O,le15,0,0,0,0
"Acetamide, N-(2-(5-methoxy-1H-indol-3-yl)ethyl)- (9CI)",537.15,1,COc1ccc2[nH]cc(CCNC(C)=O)c2c1,le15,0,0,0,0
"Phosphonodithioic acid, ethyl-, O-methyl S-phenyl ester",413.05,1,CCP(=S)(OC)Sc1ccccc1,le15,0,0,0,1
"Urea, N-(2-methylcyclohexyl)-N'-phenyl- (9CI)",394.65,1,CC1CCCCC1NC(=O)Nc1ccccc1,le15,0,0,0,0
"Phosphorodithioic acid, O,O-dimethyl S-2-(methylthio)ethyl ester",397.05,1,COP(=S)(OC)SCCSC,le15,0,0,0,1
"1,3,5-Triazine-2,4,6(1H,3H,5H)-trione, 1,3,5-trichloro-",498.15,1,O=c1n(Cl)c(=O)n(Cl)c(=O)n1Cl,le15,0,0,0,0
ethenyl-tri(propan-2-yloxy)silane,359.75,1,C=C[Si](OC(C)C)(OC(C)C)OC(C)C,le15,1,1,0,0
Undecylbenzene,417.0,1,CCCCCCCCCCCc1ccccc1,le15,0,0,0,0
"1H,3H-Naphtho(1,8-cd)pyran-1,3-dione, 6-chloro-",481.45,1,O=C1OC(=O)c2ccc(Cl)c3cccc1c23,le15,0,0,0,0
2biphenylyl2chloroethylether,433.15,1,ClC(COCC(Cl)c1ccccc1-c1ccccc1)c1ccccc1-c1ccccc1,le15,0,0,0,0
1-chlorotetradecane,403.15,1,CCCCCCCCCCCCCCCl,le15,0,0,0,0
"(E)-2,3-dichloro-1,1,1,4,4,4-hexafluorobut-2-ene",276.35,1,FC(F)(F)/C(Cl)=C(\Cl)C(F)(F)F,le15,0,0,0,0
"Phosphonic acid, ethenyl-, bis(2-chloroethyl) ester",438.65,1,C=CP(=O)(OCCCl)OCCCl,le15,0,0,0,1
"2,3,5,6-Tetrafluoro-4-aminobenzotrifluoride",341.05,1,Nc1c(F)c(F)c(C(F)(F)F)c(F)c1F,le15,0,0,0,0
"5-bromo-1,2-dihydroacenaphthylene",435.45,1,Brc1ccc2c3c(cccc13)CC2,le15,0,0,0,0
1-bromo-2-phenylbenzene,406.85,1,Brc1ccccc1-c1ccccc1,le15,0,0,0,0
"1,1'-Biphenyl, 3-bromo-",408.75,1,Brc1cccc(-c2ccccc2)c1,le15,0,0,0,0
"Urea, N'-(3,4-dichlorophenyl)-N,N-dimethyl-",459.85,1,CN(C)C(=O)Nc1ccc(Cl)c(Cl)c1,le15,0,0,0,0
"1,2,4-Triazin-3-amine, 6-(2-(5-nitro-2-furanyl)ethenyl)- (9CI)",525.95,1,Nc1ncc(C=Cc2ccc([N+](=O)[O-])o2)nn1,le15,0,0,0,0
"2,2':6',2''-Terpyridine",455.65,1,c1ccc(-c2cccc(-c3ccccn3)n2)nc1,le15,0,0,0,0
"2-Piperidineacetic acid, alpha-phenyl-, methyl ester",425.15,1,COC(=O)C(c1ccccc1)C1CCCCN1,le15,0,0,0,1
"Sulfanilyl chloride, N-acetyl- (6CI,7CI,8CI)",485.05,1,CC(=O)Nc1ccc(S(=O)(=O)Cl)cc1,le15,0,0,0,0
1-iodo-2-methoxybenzene,371.65,1,COc1ccccc1I,le15,0,0,0,0
"Benzenemethanol, 2-iodo-",401.35,1,OCc1ccccc1I,le15,0,0,0,0
1-iodo-4-methoxybenzene,368.25,1,COc1ccc(I)cc1,le15,0,0,0,0
"2,3,5,6-Tetrafluoro-4-(trifluoromethyl)phenol",326.15,1,Oc1c(F)c(F)c(C(F)(F)F)c(F)c1F,le15,0,0,0,0
"Carbamic acid, N-methyl-, 3,4-dichlorobenzyl ester",439.35,1,CNC(=O)OCc1ccc(Cl)c(Cl)c1,le15,0,0,0,1
"1,2,3,4-Butanetetracarboxylic acid",415.85,1,O=C(O)CC(C(=O)O)C(CC(=O)O)C(=O)O,le15,0,0,0,1
"2-Benzothiazolamine, 6-(trifluoromethoxy)-",406.15,1,Nc1nc2ccc(OC(F)(F)F)cc2s1,le15,0,0,0,0
"trimethyl 2-hydroxypropane-1,2,3-tricarboxylate",352.35,1,COC(=O)CC(O)(CC(=O)OC)C(=O)OC,le15,0,0,0,0
"Ethanol, 2,2'-(1,2-ethanediylbis(oxy))bis-, diacetate",447.15,1,CC(=O)O.CC(=O)O.OCCOCCOCCO,le15,0,0,0,0
"Tartaric acid, diisopropyl ester",382.55,1,CC(C)OC(=O)C(O)C(O)C(=O)OC(C)C,le15,0,0,0,1
"Benzeneacetic acid, alpha-cyclohexyl-alpha-hydroxy- (9CI)",488.25,1,O=C(O)C(O)(c1ccccc1)C1CCCCC1,le15,0,0,0,1
"Benzo(b)naphtho(1,2-d)thiophene",436.15,1,c1ccc2c(c1)ccc1sc3ccccc3c12,le15,0,0,0,0
"Benzo(b)naphtho(2,1-d)thiophene (8CI)(9CI)",436.15,1,c1ccc2c(c1)ccc1c3ccccc3sc21,le15,0,0,0,0
"1H-Cyclopentapyrimidine-2,4(3H,5H)-dione, 6,7-dihydro-3-cyclohexyl-",475.55,1,O=c1[nH]c2c(c(=O)n1C1CCCCC1)CCC2,le15,0,0,0,0
"Phenanthrene, 7-isopropyl-1-methyl- (8CI)",450.962,1,Cc1cccc2c1ccc1cc(C(C)C)ccc12,le15,0,0,0,0
"2-Propenoic acid, 3-(trimethoxysilyl)propyl ester",355.45,1,C=CC(=O)OCCC[Si](OC)(OC)OC,le15,1,1,0,1
"Acetamide, 2-(diethylamino)-N-(2,6-dimethylphenyl)-",439.15,1,CCN(CC)CC(=O)Nc1c(C)cccc1C,le15,0,0,0,0
"Phenol, 2,4-bis(1,1-dimethylpropyl)-",416.15,1,CCC(C)(C)c1ccc(O)c(C(C)(C)CC)c1,le15,0,0,0,0
"Phenol, 2,6-di-tert-butyl-4-ethyl- (8CI)",378.15,1,CCc1cc(C(C)(C)C)c(O)c(C(C)(C)C)c1,le15,0,0,0,0
"Phosphine sulfide, tributyl-",409.65,1,CCCCP(=S)(CCCC)CCCC,le15,0,0,0,0
"7,14-Methano-2H,6H-dipyrido(1,2-a:1',2'-e)(1,5)diazocine, dodecahydro-",421.45,1,C1CCN2CC3CC(CN4CCCCC34)C2C1,le15,0,0,0,0
"Silane, pentyltriethoxy-",351.05,1,CCCCC[Si](OCC)(OCC)OCC,le15,1,1,0,0
"Propanoic acid, 2-(2,4-dichlorophenoxy)-",437.65,1,CC(Oc1ccc(Cl)cc1Cl)C(=O)O,le15,0,0,0,1
"Acetic acid, (2,4-dichlorophenoxy)-, methyl ester",397.25,1,COC(=O)COc1ccc(Cl)cc1Cl,le15,0,0,0,1
"Adenosine, 2',3'-dideoxy-",553.05,1,Nc1ncnc2c1ncn2[C@H]1CC[C@@H](CO)O1,le15,0,0,0,0
"1,4-Oxathiin-3-carboxamide, 5,6-dihydro-2-methyl-N-phenyl-",481.35,1,CC1=C(C(=O)Nc2ccccc2)SCCO1,le15,0,0,0,0
"Carbamic acid, methyl-, 3,5-diisopropylphenyl ester",406.95,1,CNC(=O)Oc1cc(C(C)C)cc(C(C)C)c1,le15,0,0,0,1
"Benzamide, 4-amino-N-(2-(diethylamino)ethyl)- (9CI)",482.05,1,CCN(CC)CCNC(=O)c1ccc(N)cc1,le15,0,0,0,0
"1,3,5-trichloro-2,4,6-trifluorobenzene",375.35,1,Fc1c(Cl)c(F)c(Cl)c(F)c1Cl,le15,0,0,0,0
"Butylamine, 4-(triethoxysilyl)-",378.25,1,CCO[Si](CCCCN)(OCC)OCC,le15,1,1,0,0
"Benzenesulfonyl chloride, 2-methyl-5-nitro- (9CI)",450.25,1,Cc1ccc([N+](=O)[O-])cc1S(=O)(=O)Cl,le15,0,0,0,0
"Benzene, 1,4-dibromo-",362.45,1,Brc1ccc(Br)cc1,le15,0,0,0,0
"Benzene, o-dibromo- (8CI)",368.65,1,Brc1ccccc1Br,le15,0,0,0,0
2-Fluoro-4-bromo-6-nitrophenol,372.95,1,O=[N+]([O-])c1cc(Br)cc(F)c1O,le15,0,0,0,0
"Benzoic acid, 2,5-dichloro-3-nitro-",448.65,1,O=C(O)c1cc(Cl)cc([N+](=O)[O-])c1Cl,le15,0,0,0,1
"1,1,1,3,3,3-hexafluoro-2-(trifluoromethyl)propan-2-ol",278.25,1,OC(C(F)(F)F)(C(F)(F)F)C(F)(F)F,le15,0,0,0,0
"1,2,3,4,5-pentafluoro-6-(trifluoromethyl)benzene",293.15,1,Fc1c(F)c(F)c(C(F)(F)F)c(F)c1F,le15,0,0,0,0
"9,10-Anthracenedione, 2-ethyl-",428.55,1,CCc1ccc2c(c1)C(=O)c1ccccc1C2=O,le15,0,0,0,0
"5H-Dibenz(b,f)azepine-5-carboxamide",475.55,1,NC(=O)N1c2ccccc2C=Cc2ccccc21,le15,0,0,0,0
"Propane, 1,2-dibromo-3-chloro-",350.15,1,ClCC(Br)CBr,le15,0,0,0,0
"Benzoic acid, 4-amino-, 2-(diethylamino)ethyl ester",452.95,1,CCN(CC)CCOC(=O)c1ccc(N)cc1,le15,0,0,0,1
"Silane, trimethoxy(3-(oxiranylmethoxy)propyl)-",355.05,1,CO[Si](CCCOCC1CO1)(OC)OC,le15,1,1,0,0
"1,1,3-trimethyl-3-phenyl-2H-indene",429.65,1,CC1(C)CC(C)(c2ccccc2)c2ccccc21,le15,0,0,0,0
"Benzenemethanol, 3,5-bis(1,1-dimethylethyl)-4-hydroxy-",404.35,1,CC(C)(C)c1cc(CO)cc(C(C)(C)C)c1O,le15,0,0,0,0
Di(morpholin-4-yl) disulphide,427.15,1,C1CN(SSN2CCOCC2)CCO1,le15,0,0,0,0
5-cyclohexylpentylcyclohexane,412.35,1,C1CCC(CCCCCC2CCCCC2)CC1,le15,0,0,0,0
"Trisiloxane, 1,1,1,3,3,5,5,5-octamethyl-",302.15,1,C[Si](C)(C)O[Si](C)(C)O[Si](C)(C)C,le15,1,1,0,0
"Ethane, hexachloro-",334.45,1,ClC(Cl)(Cl)C(Cl)(Cl)Cl,le15,0,0,0,0
"Urea, 3-(p-chlorophenyl)-1-methyl-1-(1-methyl-2-propynyl)-",465.75,1,C#CC(C)N(C)C(=O)Nc1ccc(Cl)cc1,le15,0,0,0,0
"3,5-dibromopyridine",357.45,1,Brc1cncc(Br)c1,le15,0,0,0,0
"Benzene, 1,5-dichloro-2,4-dinitro-",431.15,1,O=[N+]([O-])c1cc([N+](=O)[O-])c(Cl)cc1Cl,le15,0,0,0,0
"Benzene, 1,2-dichloro-4,5-dinitro-",440.05,1,O=[N+]([O-])c1cc(Cl)c(Cl)cc1[N+](=O)[O-],le15,0,0,0,0
"Dibenzofuran, 2,8-dichloro- (8CI)(9CI)",442.45,1,Clc1ccc2oc3ccc(Cl)cc3c2c1,le15,0,0,0,0
"Benzene, 1,1'-methylenebis(4-chloro-",412.95,1,Clc1ccc(Cc2ccc(Cl)cc2)cc1,le15,0,0,0,0
"9,10-Anthracenedione, 1-amino-2-methyl-",517.95,1,Cc1ccc2c(c1N)C(=O)c1ccccc1C2=O,le15,0,0,0,0
"Acetamide, N-(9-oxo-9H-fluoren-2-yl)- (9CI)",490.15,1,CC(=O)Nc1ccc2c(c1)C(=O)c1ccccc1-2,le15,0,0,0,0
"Benzoic acid, 4-(acetylamino)-2-ethoxy-, methyl ester",484.65,1,CCOc1cc(NC(C)=O)ccc1C(=O)OC,le15,0,0,0,1
"Carbamic acid, methyl-, o-(4-methyl-1,3-dioxolan-2-yl)phenyl ester",424.75,1,CNC(=O)Oc1ccccc1C1OCC(C)O1,le15,0,0,0,1
"5H-Dibenzo(a,d)cycloheptene-5-carboxamide, 10,11-dihydro-",492.35,1,NC(=O)C1c2ccccc2CCc2ccccc21,le15,0,0,0,0
"Propane, 1,2,2-trichloropentafluoro-",277.55,1,FC(F)(F)C(Cl)(Cl)C(F)(F)Cl,le15,0,0,0,0
"1,1,1-trichloro-2,2,3,3,3-pentafluoropropane",276.15,1,FC(F)(F)C(F)(F)C(Cl)(Cl)Cl,le15,0,0,0,0
"4,5-Isoxazoledione, 3-methyl-, 4-((o-chlorophenyl)hydrazone)",421.55,1,CC1=NOC(=O)C1=NNc1ccccc1Cl,le15,0,0,0,0
"1,1,1,2,2,3,3,4,4,4-decafluorobutane",277.35,1,FC(F)(F)C(F)(F)C(F)(F)C(F)(F)F,le15,0,0,0,0
"9,10-Anthracenedione, 1,5-diamino-",560.75,1,Nc1cccc2c1C(=O)c1cccc(N)c1C2=O,le15,0,0,0,0
"9,10-Anthracenedione, 2,6-diamino-",560.75,1,Nc1ccc2c(c1)C(=O)c1ccc(N)cc1C2=O,le15,0,0,0,0
"9,10-Anthracenedione, 1,4-diamino-",556.05,1,Nc1ccc(N)c2c1C(=O)c1ccccc1C2=O,le15,0,0,0,0
"9,10-Anthracenedione, 1,2-diamino-",558.85,1,Nc1ccc2c(c1N)C(=O)c1ccccc1C2=O,le15,0,0,0,0
"2-Propenoic acid, 3-phenyl-, phenylmethyl ester",498.85,1,O=C(C=Cc1ccccc1)OCc1ccccc1,le15,0,0,0,1
"2-Propen-1-one, 1-(4-methoxyphenyl)-3-phenyl-",453.65,1,COc1ccc(C(=O)C=Cc2ccccc2)cc1,le15,0,0,0,0
"2-Propen-1-ol, 3-phenyl-, benzoate",449.25,1,O=C(OCC=Cc1ccccc1)c1ccccc1,le15,0,0,0,0
2butoxyethylsalicylate,430.35,1,CCCCOCCOc1ccccc1C(=O)[O-],le15,0,0,0,0
"7H-Pyrrolo(2,3-d)pyrimidin-4-amine, 2-methyl-N-(phenylmethyl)-",458.45,1,Cc1nc(NCc2ccccc2)c2cc[nH]c2n1,le15,0,0,0,0
"1,5-diphenylpentan-3-one",426.85,1,O=C(CCc1ccccc1)CCc1ccccc1,le15,0,0,0,0
"Ergoline, 8,9-didehydro-6,8-dimethyl-",482.45,1,CC1=C[C@@H]2c3cccc4[nH]cc(c34)C[C@H]2N(C)C1,le15,0,0,0,0
"(2,3-dimethyl-3-phenylbutan-2-yl)benzene",415.85,1,CC(C)(c1ccccc1)C(C)(C)c1ccccc1,le15,0,0,0,0
1-chloro-3-iodobenzene,374.85,1,Clc1cccc(I)c1,le15,0,0,0,0
"Benzene, 1-chloro-4-iodo-",381.15,1,Clc1ccc(I)cc1,le15,0,0,0,0
1-chloro-2-iodobenzene,384.85,1,Clc1ccccc1I,le15,0,0,0,0
3-Methylcyclopentadecan-1-one,418.45,1,CC1CCCCCCCCCCCCC(=O)C1,le15,0,0,0,0
"11-Hexadecenal, (11Z)-",334.25,1,CCCC/C=C\CCCCCCCCCC=O,le15,0,0,0,0
dodecylcyclopentane,408.95,1,CCCCCCCCCCCCC1CCCC1,le15,0,0,0,0
"Octane, 1-((3-chloropropyl)sulfinyl)- (9CI)",450.25,1,CCCCCCCCS(=O)CCCCl,le15,0,0,0,0
"Benzoyl chloride, m-(chlorosulfonyl)- (7CI,8CI)",434.95,1,O=C(Cl)c1cccc(S(=O)(=O)Cl)c1,le15,0,0,0,0
Sebacoyl chloride (8CI),424.55,1,O=C(Cl)CCCCCCCCC(=O)Cl,le15,0,0,0,0
"1,4-Benzenedicarboxylic acid, 2-nitro-, dimethyl ester",433.35,1,COC(=O)c1ccc(C(=O)OC)c([N+](=O)[O-])c1,le15,0,0,0,1
"9,10-Anthracenedione, 1-amino-4-hydroxy-",535.85,1,Nc1ccc(O)c2c1C(=O)c1ccccc1C2=O,le15,0,0,0,0
"Hydrocinnamic acid, alpha-amino-3-carboxy-4-methoxy-, DL-",508.65,1,COc1ccc(CC(N)C(=O)O)cc1C(=O)O,le15,0,0,0,1
"Acetamide, N-9H-fluoren-2-yl-N-hydroxy- (9CI)",502.15,1,CC(=O)N(O)c1ccc2c(c1)Cc1ccccc1-2,le15,0,0,0,0
"Acetamide, N-(7-hydroxyfluoren-2-yl)- (8CI)",553.05,1,CC(=O)Nc1ccc2c(c1)Cc1cc(O)ccc1-2,le15,0,0,0,0
"Acetamide, N-(5-hydroxy-9H-fluoren-2-yl)-",553.05,1,CC(=O)Nc1ccc2c(c1)Cc1cccc(O)c1-2,le15,0,0,0,0
"Acetamide, N-(3-hydroxy-9H-fluoren-2-yl)- (9CI)",523.55,1,CC(=O)Nc1cc2c(cc1O)-c1ccccc1C2,le15,0,0,0,0
"Acetamide, N-(1-hydroxy-9H-fluoren-2-yl)- (9CI)",513.45,1,CC(=O)Nc1ccc2c(c1O)Cc1ccccc1-2,le15,0,0,0,0
"Carbamic acid, methyl-, o-(1,3-oxathiolan-2-yl)phenyl ester",449.25,1,CNC(=O)Oc1ccccc1C1OCCS1,le15,0,0,0,1
"Benzeneacetamide, N,N-dimethyl-alpha-phenyl- (9CI)",446.45,1,CN(C)C(=O)C(c1ccccc1)c1ccccc1,le15,0,0,0,0
"Benzenamine, N,N,3-trimethyl-4-(phenylazo)- (9CI)",463.35,1,Cc1cc(N(C)C)ccc1N=Nc1ccccc1,le15,0,0,0,0
"Guanidine, N,N'-bis(2-methylphenyl)-",466.45,1,Cc1ccccc1NC(=N)Nc1ccccc1C,le15,0,0,0,0
"Benzenamine, N,N-dimethyl-4-((2-methylphenyl)azo)- (9CI)",463.35,1,Cc1ccccc1N=Nc1ccc(N(C)C)cc1,le15,0,0,0,0
"1,3,5-Triazine-2,4-diamine, N,N-diethyl-6-methoxy-N'-(1-methylethyl)-",449.25,1,CCN(CC)c1nc(NC(C)C)nc(OC)n1,le15,0,0,0,0
"Acetic acid, (2,3,6-trichlorophenyl)-",440.75,1,O=C(O)Cc1c(Cl)ccc(Cl)c1Cl,le15,0,0,0,1
"Silane, trichloro(2-phenylethyl)-",390.95,1,Cl[Si](Cl)(Cl)CCc1ccccc1,le15,1,1,0,0
"Disulfide, isopropyl 1,2,2-trichloroethyl",368.15,1,CC(C)SSC(Cl)C(Cl)Cl,le15,0,0,0,0
"3-Isoxazolidinone, 2-((2-chlorophenyl)methyl)-4,4-dimethyl-",419.05,1,CC1(C)CON(Cc2ccccc2Cl)C1=O,le15,0,0,0,0
"Acetic acid, dichloro-, anhydride",363.75,1,O=C(OC(=O)C(Cl)Cl)C(Cl)Cl,le15,0,0,0,1
"1,3-Dioxolane, 4-chloromethyl-2-(trichloromethyl)-",380.15,1,ClCC1COC(C(Cl)(Cl)Cl)O1,le15,0,0,0,0
1-iodooctane,368.15,1,CCCCCCCCI,le15,0,0,0,0
"Ethanol, 2,2'-(1,2-ethanediylbis(oxy))bis-, dinitrate",420.05,1,O=[N+]([O-])O.O=[N+]([O-])O.OCCOCCOCCO,le15,0,0,0,0
"9,10-Anthracenedione, 1,2-dihydroxy-",501.15,1,O=C1c2ccccc2C(=O)c2c1ccc(O)c2O,le15,0,0,0,0
"9,10-Anthracenedione, 1,4-dihydroxy-",495.15,1,O=C1c2ccccc2C(=O)c2c(O)ccc(O)c21,le15,0,0,0,0
"9,10-Anthracenedione, 2,6-dihydroxy-",508.45,1,O=C1c2ccc(O)cc2C(=O)c2ccc(O)cc21,le15,0,0,0,0
"9,10-Anthracenedione, 1,8-dihydroxy-",514.85,1,O=C1c2cccc(O)c2C(=O)c2c(O)cccc21,le15,0,0,0,0
"9,10-Anthracenedione, 1,5-dihydroxy-",514.85,1,O=C1c2cccc(O)c2C(=O)c2cccc(O)c21,le15,0,0,0,0
"9,10-Anthracenedione, 1,3-dihydroxy- (9CI)",552.15,1,O=C1c2ccccc2C(=O)c2c(O)cc(O)cc21,le15,0,0,0,0
"Phenol, 2-(1,1-dimethylethyl)-4,6-dinitro- (9CI)",398.15,1,CC(C)(C)c1cc([N+](=O)[O-])cc([N+](=O)[O-])c1O,le15,0,0,0,0
"Phenol, 4-(1,1-dimethylethyl)-2,6-dinitro-",382.45,1,CC(C)(C)c1cc([N+](=O)[O-])c(O)c([N+](=O)[O-])c1,le15,0,0,0,0
"Benzoic acid, o-benzoyl-, methyl ester (8CI)",427.55,1,COC(=O)c1ccccc1C(=O)c1ccccc1,le15,0,0,0,1
"Benzoic acid, 6-benzoyl-3-methyl- (9CI)",517.55,1,Cc1ccc(C(=O)c2ccccc2)c(C(=O)O)c1,le15,0,0,0,1
"Anthraquinone, 1,4-diamino-2,3-dihydro- (8CI)",453.85,1,NC1=C2C(=O)c3ccccc3C(=O)C2=C(N)CC1,le15,0,0,0,0
"Benzenamine, 4-(2-(4-nitrophenyl)ethenyl)-",477.85,1,Nc1ccc(C=Cc2ccc([N+](=O)[O-])cc2)cc1,le15,0,0,0,0
"Phosphoric acid, diethyl 1-methyl-2-(methylthio)ethenyl ester (9CI)",389.55,1,CCOP(=O)(OCC)OC(C)=CSC,le15,0,0,0,1
4H-Cyclopenta(def)chrysene,502.65,1,c1ccc2c(c1)cc1c3c2ccc2cccc(c23)C1,le15,0,0,0,0
"Benzeneacetic acid, 2-phenylethyl ester",418.95,1,O=C(Cc1ccccc1)OCCc1ccccc1,le15,0,0,0,1
"Propane, 1,2-epoxy-3-((alpha-phenyl-o-tolyl)oxy)- (7CI,8CI)",418.05,1,c1ccc(Cc2ccccc2OCC2CO2)cc1,le15,0,0,0,0
"Propane, 1,2-epoxy-3-((alpha-phenyl-p-tolyl)oxy)- (7CI,8CI)",424.55,1,c1ccc(Cc2ccc(OCC3CO3)cc2)cc1,le15,0,0,0,0
"1,3-dimethyl-1,3-diphenylurea",415.75,1,CN(C(=O)N(C)c1ccccc1)c1ccccc1,le15,0,0,0,0
"Acetic acid, phenyl-, 2-benzylhydrazide",416.75,1,O=C(Cc1ccccc1)NNCc1ccccc1,le15,0,0,0,1
"diethyl 2,2-bis(prop-2-enyl)propanedioate",379.87800000000004,1,C=CCC(CC=C)(C(=O)OCC)C(=O)OCC,le15,0,0,0,0
"Toluene-2,4-diamine, 5-(o-tolylazo)- (8CI)",510.75,1,Cc1cc(N=Nc2ccccc2C)c(N)cc1N,le15,0,0,0,0
"Benzenamine, 4-(6-methyl-2-benzothiazolyl)-",490.45,1,Cc1ccc2nc(-c3ccc(N)cc3)sc2c1,le15,0,0,0,0
"2-Pyridinepropanamine, N,N-dimethyl-gamma-phenyl- (9CI)",437.65,1,CN(C)CCC(c1ccccc1)c1ccccn1,le15,0,0,0,0
"(1,1'-Biphenyl)-4,4'-diamine, N4,N4,N4',N4'-tetramethyl-",446.55,1,CN(C)c1ccc(-c2ccc(N(C)C)cc2)cc1,le15,0,0,0,0
"Ergoline, 6,8beta-dimethyl- (8CI)",473.35,1,C[C@@H]1C[C@@H]2c3cccc4[nH]cc(c34)C[C@H]2N(C)C1,le15,0,0,0,0
"10-Undecenoic acid, butyl ester",401.15,1,C=CCCCCCCCCC(=O)OCCCC,le15,0,0,0,1
"Urea, 1,3-dicyclohexyl-2-thio-",435.75,1,S=C(NC1CCCCC1)NC1CCCCC1,le15,0,0,0,0
"4,5-Dichloro-2,3-dihydro-2-phenylpyridazin-3-one",441.45,1,O=c1c(Cl)c(Cl)cnn1-c1ccccc1,le15,0,0,0,0
"Phenol, 2,4-dichloro-, methanesulfonate",441.95,1,CS(=O)(=O)Oc1ccc(Cl)cc1Cl,le15,0,0,0,0
"Benzoic acid, 2-((phenylamino)carbonyl)-",443.85,1,O=C(O)c1ccccc1C(=O)Nc1ccccc1,le15,0,0,0,1
"Benzoic acid, (4-(hydroxyimino)-2,5-cyclohexadien-1-ylidene)hydrazide",451.05,1,O=C(NN=C1C=CC(=NO)C=C1)c1ccccc1,le15,0,0,0,1
"1,2-Propanediol, 3-(2-methoxyphenoxy)-, 1-carbamate",512.75,1,COc1ccccc1OCC(O)COC(N)=O,le15,0,0,0,0
9-Benzyladenine 1-oxide,537.65,1,Nc1c2ncn(Cc3ccccc3)c2nc[n+]1[O-],le15,0,0,0,0
"Benzoic acid, 2-((2,3-dimethylphenyl)amino)-",468.15,1,Cc1cccc(Nc2ccccc2C(=O)O)c1C,le15,0,0,0,1
"Benzoic acid, 2-amino-, 2-phenylethyl ester",509.25,1,Nc1ccccc1C(=O)OCCc1ccccc1,le15,0,0,0,1
"ethyl N,N-diphenylcarbamate",444.65,1,CCOC(=O)N(c1ccccc1)c1ccccc1,le15,0,0,0,0
"Carbamic acid, methyl-, 4-(methylsulfinyl)-3,5-xylyl ester",468.25,1,CNC(=O)Oc1cc(C)c(S(C)=O)c(C)c1,le15,0,0,0,1
"2-Pyridinecarboxylic acid, 4-amino-3,5,6-trichloro-",481.25,1,Nc1c(Cl)c(Cl)nc(C(=O)O)c1Cl,le15,0,0,0,1
"2,4-Imidazolidinedione, 3-bromo-1-chloro-5,5-dimethyl-",367.65,1,CC1(C)C(=O)N(Br)C(=O)N1Cl,le15,0,0,0,0
"Ethanol, 2-(2,4,5-trichlorophenoxy)-",434.65,1,OCCOc1cc(Cl)c(Cl)cc1Cl,le15,0,0,0,0
"1-Hexanamine, 2-ethyl-N-(2-ethylhexyl)-",401.15,1,CCCCC(CC)CNCC(CC)CCCC,le15,0,0,0,0
1-Hexadecanamine,413.15,1,CCCCCCCCCCCCCCCCN,le15,0,0,0,0
"Phosphoramidic acid, diethyl-, 2-chloroethenyl ethyl ester",382.15,1,CCOP(=O)(OC=CCl)N(CC)CC,le15,0,0,0,1