compound,flashpoint,pure substance,smiles,source,is_silicon,is_metallic,is_tin,is_acid
"2-Propenal, 2-methyl-",258.15,1,C=C(C)C=O,le15,0,0,0,0
But-2-yn-1-ol,324.15,1,CC#CCO,le15,0,0,0,0
But-3-yn-1-ol,309.15,1,C#CCCO,le15,0,0,0,0
ethynoxyethane,282.15,1,C#COCC,le15,0,0,0,0
cyclobutanone,283.15,1,O=C1CCC1,le15,0,0,0,0
"2,3-dihydrofuran",249.15,1,C1=COCC1,le15,0,0,0,0
"2,5-dihydrofuran",256.45,1,C1=CCOC1,le15,0,0,0,0
Crotonaldehyde,282.05,1,C/C=C/C=O,le15,0,0,0,0
1-Butyn-3-ol,298.75,1,C#CC(C)O,le15,0,0,0,0
2butenal,286.0,1,CC=CC=O,le15,0,0,0,0
Cyclobutanone,283.0,1,O=C1CCC1,le15,0,0,0,0
"Cyanamide, dimethyl-",331.45,1,CN(C)C#N,le15,0,0,0,0
"Propanenitrile, 3-amino-",339.65,1,N#CCCN,le15,0,0,0,0
1-Pentene,245.15,1,C=CCCC,le15,0,0,0,0
2methyl1butene,239.0,1,C=C(C)CC,le15,0,0,0,0
2methyl2butene,228.0,1,CC=C(C)C,le15,0,0,0,0
3methyl1butene,217.0,1,C=CC(C)C,le15,0,0,0,0
2-Propenamide,352.15,1,C=CC(N)=O,le15,0,0,0,0
2-methoxyacetonitrile,304.85,1,COCC#N,le15,0,0,0,0
"2-Propenal, oxime",303.714,1,C=CC=NO,le15,0,0,0,0
3hydroxypropanenitrile,402.0,1,N#CCCO,le15,0,0,0,0
Pyrrolidine,275.928,1,C1CCNC1,le15,0,0,0,0
N-methylprop-2-en-1-amine,244.85,1,C=CCNC,le15,0,0,0,0
Cyclobutylamine,269.0,1,NC1CCC1,le15,0,0,0,0
Propiolactone,343.15,1,O=C1CCO1,le15,0,0,0,0
2-Propenoic acid,341.15,1,C=CC(=O)O,le15,0,0,0,1
"Butane, 1,2-epoxy-",251.15,1,CCC1CO1,le15,0,0,0,0
"Furan, tetrahydro-",252.15,1,C1CCOC1,le15,0,0,0,0
Isopropenyl methyl ether,244.15,1,C=C(C)OC,le15,0,0,0,0
"2-Propen-1-ol, 2-methyl-",306.15,1,C=C(C)CO,le15,0,0,0,0
"Propane, 1,2-epoxy-2-methyl-",273.75,1,CC1(C)CO1,le15,0,0,0,0
3-methoxyprop-1-ene,250.15,1,C=CCOC,le15,0,0,0,0
"(2R,3S)-2,3-dimethyloxirane",251.45,1,C[C@@H]1O[C@@H]1C,le15,0,0,0,0
cyclobutanol,294.15,1,OC1CCC1,le15,0,0,0,0
2-Buten-1-ol,310.15,1,CC=CCO,le15,0,0,0,0
"Propanal, 2-methyl-",249.15,1,CC(C)C=O,le15,0,0,0,0
Methyl ethyl ketone,282.15,1,CCC(C)=O,le15,0,0,0,0
3-Buten-2-ol,289.85,1,C=CC(C)O,le15,0,0,0,0
3-Buten-1-ol,305.35,1,C=CCCO,le15,0,0,0,0
2methyl1propanal,248.0,1,CC(C)C=O,le15,0,0,0,0
3butene2ol,293.0,1,C=CC(C)O,le15,0,0,0,0
"Butane, 2-methyl-",222.15,1,CCC(C)C,le15,0,0,0,0
Isopentane,216.0,1,CCC(C)C,le15,0,0,0,0
1-nitroethene,296.35,1,C=C[N+](=O)[O-],le15,0,0,0,0
Propionamide,358.05,1,CCC(N)=O,le15,0,0,0,0
"2-Propanone, oxime",318.35,1,CC(C)=NO,le15,0,0,0,0
"Guanidine, methyl-",331.25,1,CNC(=N)N,le15,0,0,0,0
2methyl2propenal,258.0,1,C=C(C)C=O,le15,0,0,0,0
"2-Propanamine, 2-methyl-",264.15,1,CC(C)(C)N,le15,0,0,0,0
"2-Butanamine, (S)- (9CI)",254.15,1,CC[C@H](C)N,le15,0,0,0,0
"Ethanamine, N,N-dimethyl-",237.15,1,CCN(C)C,le15,0,0,0,0
sec-Butylamine,254.15,1,CCC(C)N,le15,0,0,0,0
secButylamine,254.0,1,CCC(C)N,le15,0,0,0,0
tertButylamine,264.0,1,CC(C)(C)N,le15,0,0,0,0
"2-Propanone, 1-hydroxy-",329.15,1,CC(=O)CO,le15,0,0,0,0
"1-Propanol, 2,3-epoxy-",344.15,1,OCC1CO1,le15,0,0,0,0
"Methanamine, N-methyl-N-nitroso-",334.15,1,CN(C)N=O,le15,0,0,0,0
methylurea,296.25,1,CNC(N)=O,le15,0,0,0,0
"Diazene, dimethyl-, 1-oxide (9CI)",282.55,1,CN=[N+](C)[O-],le15,0,0,0,0
"Ethane, 1,1'-oxybis-",228.15,1,CCOCC,le15,0,0,0,0
Butyl alcohol,308.15,1,CCCCO,le15,0,0,0,0
"1-Propanol, 2-methyl-",300.928,1,CC(C)CO,le15,0,0,0,0
1-deuteriooxybutane,308.15,1,[2H]OCCCC,le15,0,0,0,0
2methyl1propanol,301.0,1,CC(C)CO,le15,0,0,0,0
secbutanol,299.0,1,CCC(C)O,le15,0,0,0,0
tertbutylalcohol,284.15,1,CC(C)(C)O,le15,0,0,0,0
Trimethylenediamine,322.05,1,NCCCN,le15,0,0,0,0
"N'-methylethane-1,2-diamine",314.25,1,CNCCN,le15,0,0,0,0
prop-2-ene-1-thiol,291.15,1,C=CCS,le15,0,0,0,0
"Propane, 1,2-epithio-",283.15,1,CC1CS1,le15,0,0,0,0
3-chloroprop-1-yne,292.05,1,C#CCCl,le15,0,0,0,0
ethyl nitrite,288.15,1,CCON=O,le15,0,0,0,0
"Acetamide, N-hydroxy- (9CI)",400.75,1,CC(=O)NO,le15,0,0,0,0
"2-Propanol, 1-amino-",347.05,1,CC(O)CN,le15,0,0,0,0
"Ethanamine, 2-methoxy-",282.55,1,COCCN,le15,0,0,0,0
"Acetonitrile, chloro-",320.95,1,N#CCCl,le15,0,0,0,0
Ethaneperoxoic acid,314.15,1,CC(=O)OO,le15,0,0,0,1
"Methanamine, N-nitro- (9CI)",320.75,1,CN[N+](=O)[O-],le15,0,0,0,0
propanoyl fluoride,276.35,1,CCC(=O)F,le15,0,0,0,0
2-(fluoromethyl)oxirane,277.15,1,FCC1CO1,le15,0,0,0,0
"Ethanol, 2-methoxy-",319.25,1,COCCO,le15,0,0,0,0
"propane-1,3-diol",352.55,1,OCCCO,le15,0,0,0,0
N-(2-Hydroxyethyl)hydrazine,347.05,1,NNCCO,le15,0,0,0,0
"Urea, thio- (8CI)",339.95,1,NC(N)=S,le15,0,0,0,0
methylsulfanylethane,258.15,1,CCSC,le15,0,0,0,0
2-Propanethiol,239.15,1,CC(C)S,le15,0,0,0,0
3chloropropene,244.0,1,C=CCCl,le15,0,0,0,0
"Acetamide, 2-fluoro-",383.55,1,NC(=O)CF,le15,0,0,0,0
"2-Butenedinitrile, (E)- (9CI)",355.75,1,N#C/C=C/C#N,le15,0,0,0,0
3-fluoropropan-1-ol,311.65,1,OCCCF,le15,0,0,0,0
"hexa-2,4-diyne",285.45,1,CC#CC#CC,le15,0,0,0,0
Sulfinylbis-methane (9CI),358.15,1,CS(C)=O,le15,0,0,0,0
DimethylSulfoxide,361.0,1,CS(C)=O,le15,0,0,0,0
1chloropropane,255.0,1,CCCCl,le15,0,0,0,0
2chloropropane,241.0,1,CC(C)Cl,le15,0,0,0,0
"(2Z)-penta-2,4-dienenitrile",312.25,1,C=C/C=C\C#N,le15,0,0,0,0
carbamoyl chloride,308.75,1,NC(=O)Cl,le15,0,0,0,0
pyridazine,358.15,1,c1ccnnc1,le15,0,0,0,0
Pyrazine,328.15,1,c1cnccn1,le15,0,0,0,0
Butanedinitrile,414.25,1,N#CCCC#N,le15,0,0,0,0
Pyrimidine,304.0,1,c1cncnc1,le15,0,0,0,0
"cyclohexa-1,4-diene",267.15,1,C1=CCC=CC1,le15,0,0,0,0
Methylcyclopentadiene,299.0,1,CC1=CC=CC1,le15,0,0,0,0
"Ether, chloromethyl methyl",288.15,1,COCCl,le15,0,0,0,0
"1,3,5-triazine",304.25,1,c1ncncn1,le15,0,0,0,0
"1H-Pyrrole, 1-methyl-",289.15,1,Cn1cccc1,le15,0,0,0,0
pent-4-enenitrile,319.35,1,C=CCCC#N,le15,0,0,0,0
2-methyl-1H-pyrrole,320.35,1,Cc1ccc[nH]1,le15,0,0,0,0
cyclobutanecarbonitrile,317.45,1,N#CC1CCC1,le15,0,0,0,0
3-methyl-1H-pyrrole,320.35,1,Cc1cc[nH]c1,le15,0,0,0,0
3-Pentenenitrile,313.15,1,CC=CCC#N,le15,0,0,0,0
1methylpyrrole,288.0,1,Cn1cccc1,le15,0,0,0,0
Difluoroethanol,273.55,1,CC(O)(F)F,le15,0,0,0,0
3-methylfuran,251.15,1,Cc1ccoc1,le15,0,0,0,0
cyclopent-2-en-1-one,315.15,1,O=C1C=CCC1,le15,0,0,0,0
Pent-2-en-4-yn-1-ol,337.35,1,C#CC=CCO,le15,0,0,0,0
2methylfuran,251.15,1,Cc1ccco1,le15,0,0,0,0
1-methylimidazole,365.15,1,Cn1ccnc1,le15,0,0,0,0
"1H-Imidazole, 4-methyl-",414.75,1,Cc1c[nH]cn1,le15,0,0,0,0
"Pyrazole, 3-methyl-",366.15,1,Cc1cc[nH]n1,le15,0,0,0,0
"1H-Imidazole, 2-methyl-",418.05,1,Cc1ncc[nH]1,le15,0,0,0,0
1-methylpyrazole,308.15,1,Cn1cccn1,le15,0,0,0,0
"1H-Pyrazole, 4-methyl-",369.25,1,Cc1cn[nH]c1,le15,0,0,0,0
1-Hexyne,252.15,1,C#CCCCC,le15,0,0,0,0
"3,3-dimethylbut-1-yne",239.15,1,C#CC(C)(C)C,le15,0,0,0,0
methylidenecyclopentane,255.15,1,C=C1CCCC1,le15,0,0,0,0
"(2Z,4E)-hexa-2,4-diene",259.25,1,C/C=C\C=C\C,le15,0,0,0,0
1-methylcyclopentene,349.15,1,CC1=CCCC1,le15,0,0,0,0
1hexyne,253.0,1,C#CCCCC,le15,0,0,0,0
1methylcyclopentene,256.0,1,CC1=CCCC1,le15,0,0,0,0
2hexyne,262.0,1,CC#CCCC,le15,0,0,0,0
Cyclohexene,253.0,1,C1=CCCCC1,le15,0,0,0,0
Methylenecyclopentane,254.0,1,C=C1CCCC1,le15,0,0,0,0
4-Methyloxazole,293.65,1,Cc1cocn1,le15,0,0,0,0
"5-methyl-1,2-oxazole",303.15,1,Cc1ccno1,le15,0,0,0,0
"3-Butenenitrile, 2-hydroxy-",345.05,1,C=CC(O)C#N,le15,0,0,0,0
Pentanenitrile,313.75,1,CCCCC#N,le15,0,0,0,0
"Butanenitrile, 3-methyl-",301.45,1,CC(C)CC#N,le15,0,0,0,0
"2-Propynylamine, 1,1-dimethyl- (6CI,7CI,8CI)",275.15,1,C#CC(C)(C)N,le15,0,0,0,0
2-methylbutanenitrile,297.55,1,CCC(C)C#N,le15,0,0,0,0
"1,2,3,6-tetrahydropyridine",289.25,1,C1=CCNCC1,le15,0,0,0,0
1-isocyanobutane,293.75,1,[C-]#[N+]CCCC,le15,0,0,0,0
Butylcyanide,313.0,1,CCCCC#N,le15,0,0,0,0
"2-Oxetanone, 4-methylene-",371.05,1,C=C1CC(=O)O1,le15,0,0,0,0
methyl prop-2-ynoate,283.15,1,C#CC(=O)OC,le15,0,0,0,0
"2-Butenedial, (Z)-",339.35,1,O=C/C=C\C=O,le15,0,0,0,0
"Guanidine, N-cyano-",365.95,1,N#CNC(=N)N,le15,0,0,0,0
"4H-1,2,4-Triazole, 4-amino-",388.85,1,Nn1cnnc1,le15,0,0,0,0
"Crotonaldehyde, 3-methyl- (8CI)",307.05,1,CC(C)=CC=O,le15,0,0,0,0
"3-Butyn-2-ol, 2-methyl-",298.15,1,C#CC(C)(C)O,le15,0,0,0,0
6-oxabicyclo[3.1.0]hexane,283.15,1,C1CC2OC2C1,le15,0,0,0,0
(E)-2-methylbut-2-enal,291.45,1,C/C=C(\C)C=O,le15,0,0,0,0
3-Penten-2-one,343.15,1,CC=CC(C)=O,le15,0,0,0,0
1-cyclopropylethanone,294.25,1,CC(=O)C1CC1,le15,0,0,0,0
"3-Buten-2-one, 3-methyl-",284.15,1,C=C(C)C(C)=O,le15,0,0,0,0
"Butanal, 2-methylene- (9CI)",274.15,1,C=C(C=O)CC,le15,0,0,0,0
"penta-1,4-dien-3-ol",303.15,1,C=CC(O)C=C,le15,0,0,0,0
(E)-Pent-2-en-1-al,292.15,1,CC/C=C/C=O,le15,0,0,0,0
Ethyl vinyl ketone,263.15,1,C=CC(=O)CC,le15,0,0,0,0
Pent-4-yn-2-ol,310.35,1,C#CCC(C)O,le15,0,0,0,0
(E)-pent-3-en-2-one,292.95,1,C/C=C/C(C)=O,le15,0,0,0,0
Cyclopent-2-en-1-ol,328.25,1,OC1C=CCC1,le15,0,0,0,0
1-Pentyn-3-ol,302.15,1,C#CC(O)CC,le15,0,0,0,0
Pent-4-yn-1-ol,329.15,1,C#CCCCO,le15,0,0,0,0
2-Pentyn-1-ol,331.15,1,CCC#CCO,le15,0,0,0,0
3-Pentyn-1-ol,327.55,1,CC#CCCO,le15,0,0,0,0
cyclopentanone,303.70599999999996,1,O=C1CCCC1,le15,0,0,0,0
1cyclopropylethanone,286.0,1,CC(=O)C1CC1,le15,0,0,0,0
"Propionitrile, 3-(methylamino)- (6CI,7CI,8CI)",336.25,1,CNCCC#N,le15,0,0,0,0
"2-methyl-4,5-dihydro-1H-imidazole",347.35,1,CC1=NCCN1,le15,0,0,0,0
"Acetonitrile, (dimethylamino)-",306.15,1,CN(C)CC#N,le15,0,0,0,0
"3,3-dimethylbut-1-ene",245.15,1,C=CC(C)(C)C,le15,0,0,0,0
"2,3-dimethylbut-1-ene",255.15,1,C=C(C)C(C)C,le15,0,0,0,0
2-methylpent-2-ene,246.15,1,CCC=C(C)C,le15,0,0,0,0
"2,3-dimethylbut-2-ene",257.15,1,CC(C)=C(C)C,le15,0,0,0,0
1hexene,247.0,1,C=CCCCC,le15,0,0,0,0
2ethyl1butene,247.0,1,C=C(CC)CC,le15,0,0,0,0
2hexene,252.0,1,CC=CCCC,le15,0,0,0,0
2methyl1pentene,247.0,1,C=C(C)CCC,le15,0,0,0,0
2methyl2pentene,250.0,1,CCC=C(C)C,le15,0,0,0,0
3methyl1pentene,245.0,1,C=CC(C)CC,le15,0,0,0,0
3methyl2pentene,267.0,1,CC=C(C)CC,le15,0,0,0,0
4methyl1pentene,242.0,1,C=CCC(C)C,le15,0,0,0,0
methylcyclopentane,263.0,1,CC1CCCC1,le15,0,0,0,0
"Methane, dichloro-",312.65,1,ClCCl,le15,0,0,0,0
"2-Propenamide, 2-methyl-",354.85,1,C=C(C)C(N)=O,le15,0,0,0,0
"Propionitrile, 3-methoxy- (8CI)",334.25,1,COCCC#N,le15,0,0,0,0
1-isocyanatopropane,272.15,1,CCCN=C=O,le15,0,0,0,0
"2-methyl-4,5-dihydro-1,3-oxazole",293.15,1,CC1=NCCO1,le15,0,0,0,0
"2-Propenamide, N-methyl-",376.75,1,C=CC(=O)NC,le15,0,0,0,0
cyclopropanecarboxamide,377.25,1,NC(=O)C1CC1,le15,0,0,0,0
"Propanenitrile, 2-hydroxy-2-methyl-",346.15,1,CC(C)(O)C#N,le15,0,0,0,0
Thiazole,299.15,1,c1cscn1,le15,0,0,0,0
"Pyrrolidine, 1-methyl-",251.45,1,CN1CCCC1,le15,0,0,0,0
1methylpyrrolidine,255.0,1,CN1CCCC1,le15,0,0,0,0
Cyclopentylamine,285.0,1,NC1CCCC1,le15,0,0,0,0
"2(3H)-Furanone, dihydro-",354.05,1,O=C1CCCO1,le15,0,0,0,0
"2,3-Butanedione",278.65,1,CC(=O)C(C)=O,le15,0,0,0,0
"2,3-dihydro-1,4-dioxine",298.75,1,C1=COCCO1,le15,0,0,0,0
2-(oxiran-2-yl)oxirane,318.75,1,C1OC1C1CO1,le15,0,0,0,0
"Butane, 1,2:3,4-diepoxy-",313.15,1,C1OC1C1CO1,le15,0,0,0,0
2-Butenoic acid,361.15,1,CC=CC(=O)O,le15,0,0,0,1
(2S)-2-[(2S)-oxiran-2-yl]oxirane,318.75,1,C1O[C@@H]1[C@@H]1CO1,le15,0,0,0,0
"2-Butyne-1,4-diol",408.708,1,OCC#CCO,le15,0,0,0,0
(2R)-2-[(2R)-oxiran-2-yl]oxirane,318.75,1,C1O[C@H]1[C@H]1CO1,le15,0,0,0,0
Crotonicacid,361.0,1,C/C=C/C(=O)O,le15,0,0,0,1
Ethenylacetate,265.0,1,C=CCC(=O)[O-],le15,0,0,0,0
gammaButyrolactone,371.0,1,O=C1CCCO1,le15,0,0,0,0
2-Imidazolidinone,475.66900000000004,1,O=C1NCCN1,le15,0,0,0,0
"Ethenamine, N-methyl-N-nitroso- (9CI)",318.65,1,C=CN(C)N=O,le15,0,0,0,0
"Butyraldehyde, 2-methyl-",277.15,1,CCC(C)C=O,le15,0,0,0,0
cyclopentanol,324.15,1,OC1CCCC1,le15,0,0,0,0
"Furan, 2-methyl-tetrahydro-",262.15,1,CC1CCCO1,le15,0,0,0,0
2-Pentanone,280.35,1,CCCC(C)=O,le15,0,0,0,0
Valeraldehyde,285.35,1,CCCCC=O,le15,0,0,0,0
oxane,258.15,1,C1CCOCC1,le15,0,0,0,0
"2-Buten-1-ol, 3-methyl-",316.15,1,CC(C)=CCO,le15,0,0,0,0
"Butyraldehyde, 3-methyl-",268.15,1,CC(C)CC=O,le15,0,0,0,0
1-Penten-3-ol,298.15,1,C=CC(O)CC,le15,0,0,0,0
4-Penten-2-ol,298.75,1,C=CCC(C)O,le15,0,0,0,0
"2,2-dimethylpropanal",258.15,1,CC(C)(C)C=O,le15,0,0,0,0
"3-Buten-1-ol, 3-methyl-",313.25,1,C=C(C)CCO,le15,0,0,0,0
1-ethenoxypropane,247.05,1,C=COCCC,le15,0,0,0,0
1-cyclopropylethanol,303.75,1,CC(O)C1CC1,le15,0,0,0,0
Pent-4-en-1-ol,316.15,1,C=CCCCO,le15,0,0,0,0
3-Penten-2-ol,300.95,1,CC=CC(C)O,le15,0,0,0,0
"2-Penten-1-ol, (2Z)-",323.75,1,CC/C=C\CO,le15,0,0,0,0
(E)-pent-2-en-1-ol,323.75,1,CC/C=C/CO,le15,0,0,0,0
3-methylbut-3-en-2-ol,302.75,1,C=C(C)C(C)O,le15,0,0,0,0
3-Pentanone,285.95,1,CCC(=O)CC,le15,0,0,0,0
"3-Butyn-2-ol, 2-methyl- (8CI,9CI)",285.95,1,C#CC(C)(C)O,le15,0,0,0,0
"1-Propene, 1-ethoxy- (9CI)",254.25,1,CC=COCC,le15,0,0,0,0
3methyl2butanone,279.0,1,CC(=O)C(C)C,le15,0,0,0,0
3pentanone,286.0,1,CCC(=O)CC,le15,0,0,0,0
Pentanal,281.0,1,CCCCC=O,le15,0,0,0,0
Piperazine,322.85,1,C1CNCCN1,le15,0,0,0,0
"2,5-dihydrothiophene",296.65,1,C1=CCSC1,le15,0,0,0,0
"Butane, 2,2-dimethyl-",225.15,1,CCC(C)(C)C,le15,0,0,0,0
"Pentane, 3-methyl-",267.15,1,CCC(C)CC,le15,0,0,0,0
"Pentane, 2-methyl-",241.15,1,CCCC(C)C,le15,0,0,0,0
2methylpentane,250.0,1,CCCC(C)C,le15,0,0,0,0
3methylpentane,267.0,1,CCC(C)CC,le15,0,0,0,0
Oxirane-2-carboxamide,513.95,1,NC(=O)C1CO1,le15,0,0,0,0
"2-Butanone, oxime",333.15,1,CCC(C)=NO,le15,0,0,0,0
Butyraldehyde oxime,331.15,1,CCCC=NO,le15,0,0,0,0
Morpholine,308.75,1,C1COCCN1,le15,0,0,0,0
butanamide,361.05,1,CCCC(N)=O,le15,0,0,0,0
2-methylpropanamide,360.85,1,CC(C)C(N)=O,le15,0,0,0,0
N-ethylacetamide,378.55,1,CCNC(C)=O,le15,0,0,0,0
N-methylpropanamide,378.55,1,CCC(=O)NC,le15,0,0,0,0
Morpholine,308.0,1,C1COCCN1,le15,0,0,0,0
ethyl thiocyanate,295.15,1,CCSC#N,le15,0,0,0,0
"1-Butanamine, 2-methyl-",276.45,1,CCC(C)CN,le15,0,0,0,0
"1-Butanamine, N-methyl-",274.85,1,CCCCNC,le15,0,0,0,0
"Propylamine, 1,2-dimethyl-",245.35,1,CC(C)C(C)N,le15,0,0,0,0
"Propylamine, 1-ethyl- (8CI)",275.35,1,CCC(N)CC,le15,0,0,0,0
"Ethanamine, N-ethyl-N-methyl-",275.35,1,CCN(C)CC,le15,0,0,0,0
"N,N-dimethylpropan-2-amine",264.15,1,CC(C)N(C)C,le15,0,0,0,0
"1-Butanamine, 3-methyl-",291.45,1,CC(C)CCN,le15,0,0,0,0
1-Pentanamine,277.55,1,CCCCCN,le15,0,0,0,0
N-ethylpropan-2-amine,289.25,1,CCNC(C)C,le15,0,0,0,0
"2-Propenenitrile, 2-chloro-",279.85,1,C=C(Cl)C#N,le15,0,0,0,0
2-oxopropanoic acid,327.45,1,CC(=O)C(=O)O,le15,0,0,0,1
Ethanediamide,385.85,1,NC(=O)C(N)=O,le15,0,0,0,0
"Ethanedial, dioxime",329.35,1,ON=CC=NO,le15,0,0,0,0
"Hydrazine, 1,2-diformyl- (8CI)",354.75,1,O=CNNC=O,le15,0,0,0,0
"Propanoic acid, 2-methyl-",331.35,1,CC(C)C(=O)O,le15,0,0,0,1
"Butyraldehyde, 3-hydroxy-",331.85,1,CC(O)CC=O,le15,0,0,0,0
Butanoic acid,342.15,1,CCCC(=O)O,le15,0,0,0,1
oxolan-3-ol,354.25,1,OC1CCOC1,le15,0,0,0,0
"but-3-ene-1,2-diol",362.45,1,C=CC(O)CO,le15,0,0,0,0
"1,3-Dioxolane, 2-methyl-",271.15,1,CC1OCCO1,le15,0,0,0,0
"2-Butanone, 3-hydroxy-",322.85,1,CC(=O)C(C)O,le15,0,0,0,0
"Ethanol, 2-(ethenyloxy)- (9CI)",323.15,1,C=COCCO,le15,0,0,0,0
"Propane, 1,2-epoxy-3-methoxy-",281.25,1,COCC1CO1,le15,0,0,0,0
1-hydroxybutan-2-one,333.15,1,CCC(=O)CO,le15,0,0,0,0
"(Z)-2-Butene-1,4-diol",401.15,1,OC/C=C\CO,le15,0,0,0,0
"1,4-Dioxane",285.35,1,C1COCCO1,le15,0,0,0,0
2methylpropanoicacid,329.0,1,CC(C)C(=O)O,le15,0,0,0,1
"Urea, N,N'-dimethyl-",397.45,1,CNC(=O)NC,le15,0,0,0,0
"Ethylamine, N-methyl-N-nitroso-",320.35,1,CCN(C)N=O,le15,0,0,0,0
Pentyl alcohol,322.05,1,CCCCCO,le15,0,0,0,0
"1-Propanol, 2,2-dimethyl-",310.15,1,CC(C)(C)CO,le15,0,0,0,0
Isopentyl alcohol (8CI),318.75,1,CC(C)CCO,le15,0,0,0,0
3-Pentanol,313.15,1,CCC(O)CC,le15,0,0,0,0
"Propane, 2-methoxy-2-methyl-",245.15,1,COC(C)(C)C,le15,0,0,0,0
2-Pentanol,307.15,1,CCCC(C)O,le15,0,0,0,0
2-methoxybutane,243.15,1,CCC(C)OC,le15,0,0,0,0
"2-Butanol, 2-methyl-",294.25,1,CCC(C)(C)O,le15,0,0,0,0
1methoxybutane,263.0,1,CCCCOC,le15,0,0,0,0
2methoxybutane,243.0,1,CCC(C)OC,le15,0,0,0,0
2methyl1butanol,316.0,1,CCC(C)CO,le15,0,0,0,0
2methyl2butanol,294.0,1,CCC(C)(C)O,le15,0,0,0,0
2pentanol,313.0,1,CCCC(C)O,le15,0,0,0,0
3methyl1butanol,316.0,1,CC(C)CCO,le15,0,0,0,0
3methyl2butanol,312.0,1,CC(C)C(C)O,le15,0,0,0,0
3pentanol,313.0,1,CCC(O)CC,le15,0,0,0,0
EthylPropylEther,253.0,1,CCCOCC,le15,0,0,0,0
"Ethylenediamine, N,N-dimethyl- (8CI)",297.05,1,CN(C)CCN,le15,0,0,0,0
"1,2-Ethanediamine, N1-ethyl-",283.15,1,CCNCCN,le15,0,0,0,0
1-Methyltrimethylenediamine,309.65,1,CC(N)CCN,le15,0,0,0,0
"Hydrazine, 1,1-diethyl-",295.95,1,CCN(N)CC,le15,0,0,0,0
Tetramethylenediamine,324.85,1,NCCCCN,le15,0,0,0,0
"1,3-Propanediamine, N-methyl-",313.15,1,CNCCCN,le15,0,0,0,0
3-methylsulfanylprop-1-ene,291.45,1,C=CCSC,le15,0,0,0,0
"Thiophene, tetrahydro-",285.95,1,C1CCSC1,le15,0,0,0,0
Thiacyclopentane,285.0,1,C1CCSC1,le15,0,0,0,0
diethylsilicon,244.25,1,CC[Si]CC,le15,1,1,0,0
"4-chlorobuta-1,2-diene",273.65,1,C=C=CCCl,le15,0,0,0,0
2-aminobutan-1-ol,355.35,1,CCC(N)CO,le15,0,0,0,0
"Ethanol, 2-(dimethylamino)-",313.75,1,CN(C)CCO,le15,0,0,0,0
"1-Propanol, 2-amino-2-methyl-",340.35,1,CC(C)(N)CO,le15,0,0,0,0
"N,N-diethylhydroxylamine",318.15,1,CCN(O)CC,le15,0,0,0,0
"1-Propanamine, 3-methoxy-",295.95,1,COCCCN,le15,0,0,0,0
"1-Butanol, 4-amino-",380.95,1,NCCCCO,le15,0,0,0,0
1-aminobutan-2-ol,334.15,1,CCC(O)CN,le15,0,0,0,0
"Ethanol, 2-(ethylamino)-",351.15,1,CCNCCO,le15,0,0,0,0
2-ethoxyethanamine,290.85,1,CCOCCN,le15,0,0,0,0
2dimethylaminoethanol,313.0,1,CN(C)CCO,le15,0,0,0,0
Thiazolidine,329.25,1,C1CSCN1,le15,0,0,0,0
"Propanenitrile, 3-chloro-",348.75,1,N#CCCCl,le15,0,0,0,0
2-Chloropropionitrile,306.45,1,CC(Cl)C#N,le15,0,0,0,0
"2-Propanone, 1,3-dihydroxy-",370.45,1,O=C(CO)CO,le15,0,0,0,0
methyl 2-hydroxyacetate,340.35,1,COC(=O)CO,le15,0,0,0,0
Dimethylcarbonate,291.0,1,COC(=O)OC,le15,0,0,0,0
"Hydroperoxide, 1,1-dimethylethyl",308.15,1,CC(C)(C)OO,le15,0,0,0,0
"1,3-Butanediol",394.25,1,CC(O)CCO,le15,0,0,0,0
"2-Propanol, 1-methoxy-",344.95,1,COCC(C)O,le15,0,0,0,0
"Ethane, 1,2-dimethoxy-",273.15,1,COCCOC,le15,0,0,0,0
"Ethanol, 2-ethoxy-",317.15,1,CCOCCO,le15,0,0,0,0
"2-methylpropane-1,2-diol",346.85,1,CC(C)(O)CO,le15,0,0,0,0
"1,2-Butanediol",366.45,1,CCC(O)CO,le15,0,0,0,0
2-methoxypropan-1-ol,315.05,1,COC(C)CO,le15,0,0,0,0
"1-Propanol, 3-methoxy-",325.95,1,COCCCO,le15,0,0,0,0
"2-methylpropane-1,3-diol",375.65,1,CC(CO)CO,le15,0,0,0,0
1methoxy2propanol,311.0,1,COCC(C)O,le15,0,0,0,0
"2-Propanol, 1,3-diamino-",370.05,1,NCC(O)CN,le15,0,0,0,0
"Pseudourea, 1-methyl-2-thio- (7CI)",312.25,1,CNC(=N)S,le15,0,0,0,0
"Ethane, 1,1'-thiobis-",263.15,1,CCSCC,le15,0,0,0,0
1-methylsulfanylpropane,273.15,1,CCCSC,le15,0,0,0,0
"2-Propanethiol, 2-methyl-",249.15,1,CC(C)(C)S,le15,0,0,0,0
2butanethiol,250.0,1,CCC(C)S,le15,0,0,0,0
2methyl2propanethiol,247.0,1,CC(C)(C)S,le15,0,0,0,0
prop-2-enoyl chloride,289.25,1,C=CC(=O)Cl,le15,0,0,0,0
"1-Propene, 3-chloro-2-methyl-",260.35,1,C=C(C)CCl,le15,0,0,0,0
(Z)-2-chlorobut-2-ene,254.15,1,C/C=C(/C)Cl,le15,0,0,0,0
(Z)-1-chlorobut-2-ene,378.55,1,C/C=C\CCl,le15,0,0,0,0
(E)-1-chlorobut-2-ene,261.15,1,C/C=C/CCl,le15,0,0,0,0
(E)-1-chlorobut-2-ene,258.15,1,C/C=C/CCl,le15,0,0,0,0
chloromethylcyclopropane,271.45,1,ClCC1CC1,le15,0,0,0,0
3chloro2methyl1propene,261.0,1,C=C(C)CCl,le15,0,0,0,0
"1,3-Propanediol, 2-amino-",388.25,1,NC(CO)CO,le15,0,0,0,0
Hydrazinecarbothioamide,353.15,1,NNC(N)=S,le15,0,0,0,0
Glycerol,457.0,1,OCC(O)CO,le15,0,0,0,0
"Benzene, methyl-",283.15,1,Cc1ccccc1,le15,0,0,0,0
"Bicyclo(2.2.1)hepta-2,5-diene",262.05,1,C1=CC2C=CC1C2,le15,0,0,0,0
"1,3,5-Cycloheptatriene",299.85,1,C1=CC=CCC=C1,le15,0,0,0,0
"2-Propanone, 1-chloro-",300.95,1,CC(=O)CCl,le15,0,0,0,0
"Propane, 1-chloro-2,3-epoxy-",307.05,1,ClCC1CO1,le15,0,0,0,0
3-chloropropanal,299.55,1,O=CCCCl,le15,0,0,0,0
PropanoylChloride,285.0,1,CCC(=O)Cl,le15,0,0,0,0
2-chloro-2-methylpropane,291.45,1,CC(C)(C)Cl,le15,0,0,0,0
"2-chloro-1,1,1,3,3,3-hexadeuterio-2-(trideuteriomethyl)propane",291.45,1,[2H]C([2H])([2H])C(Cl)(C([2H])([2H])[2H])C([2H])([2H])[2H],le15,0,0,0,0
1chloro2methylpropane,294.0,1,CC(C)CCl,le15,0,0,0,0
1chlorobutane,267.0,1,CCCCCl,le15,0,0,0,0
2chloro2methylpropane,291.0,1,CC(C)(C)Cl,le15,0,0,0,0
furan-2-carbonitrile,308.15,1,N#Cc1ccco1,le15,0,0,0,0
Benzenamine,349.15,1,Nc1ccccc1,le15,0,0,0,0
"Pyridine, 4-methyl-",313.15,1,Cc1ccncc1,le15,0,0,0,0
"Pyridine, 3-methyl-",309.26099999999997,1,Cc1cccnc1,le15,0,0,0,0
"Pyridine, 2-methyl-",299.26099999999997,1,Cc1ccccn1,le15,0,0,0,0
2chloropyridine,339.0,1,Clc1ccccn1,le15,0,0,0,0
3picoline,313.0,1,Cc1cccnc1,le15,0,0,0,0
4methylpyridine,310.0,1,Cc1ccncc1,le15,0,0,0,0
4picoline,313.0,1,Cc1ccncc1,le15,0,0,0,0
"Acetamide, 2-chloro-",381.75,1,NC(=O)CCl,le15,0,0,0,0
2-ethenylfuran,278.65,1,C=Cc1ccco1,le15,0,0,0,0
"Pyrazine, 2-methyl-",323.15,1,Cc1cnccn1,le15,0,0,0,0