compound,flashpoint,pure substance,smiles,source,is_silicon,is_metallic,is_tin,is_acid
"1,2-Benzenedicarboxylic acid, didecyl ester",516.85,1,CCCCCCCCCCOC(=O)c1ccccc1C(=O)OCCCCCCCCCC,le15,0,0,0,1
"Hexasulfide, bis(1-piperidinylthioxomethyl)",576.75,1,S=C(SSSSSSC(=S)N1CCCCC1)N1CCCCC1,le15,0,0,0,0
"1-bromo-1,1,2,2,3,3,4,4,5,5,6,6,7,7,7-pentadecafluoroheptane",300.65,1,FC(F)(F)C(F)(F)C(F)(F)C(F)(F)C(F)(F)C(F)(F)C(F)(F)Br,le15,0,0,0,0
dotriacontane,597.05,1,CCCCCCCCCCCCCCCCCCCCCCCCCCCCCCCC,le15,0,0,0,0
"1,1,2,2,3,3,4,4-octafluoro-1,4-diiodobutane",329.05,1,FC(F)(I)C(F)(F)C(F)(F)C(F)(F)I,le15,0,0,0,0
"Benzamide, N,N'-(dithiodi-2,1-phenylene)bis-",523.15,1,O=C(Nc1ccccc1SSc1ccccc1NC(=O)c1ccccc1)c1ccccc1,le15,0,0,0,0
"1,3-Benzodioxole, 5-(bis(2-(2-butoxyethoxy)ethoxy)methyl)- (9CI)",470.75,1,CCCCOCCOCCOC(OCCOCCOCCCC)c1ccc2c(c1)OCO2,le15,0,0,0,0
"Dibenzo-p-dioxin, 1,2,3,4,6,7,8,9-octachloro-",468.85,1,Clc1c(Cl)c(Cl)c2c(c1Cl)Oc1c(Cl)c(Cl)c(Cl)c(Cl)c1O2,le15,0,0,0,0
"1,6-Dibromo-1,1,2,2,3,3,4,4,5,5,6,6-dodecafluorohexane",319.55,1,FC(F)(Br)C(F)(F)C(F)(F)C(F)(F)C(F)(F)C(F)(F)Br,le15,0,0,0,0
2-[2-[2-(2-hydroxyethoxy)ethoxy]ethoxy]ethyl octadecanoate,436.15,1,CCCCCCCCCCCCCCCCCC(=O)OCCOCCOCCOCCO,le15,0,0,0,0
"1,1,2,2,3,3,4,4,4a,5,5,6,6,7,7,8,8,8a-octadecafluoronaphthalene",319.55,1,FC1(F)C(F)(F)C(F)(F)C2(F)C(F)(F)C(F)(F)C(F)(F)C(F)(F)C2(F)C1(F)F,le15,0,0,0,0
"1,3-Isobenzofurandione, 4,5,6,7-tetrabromo-",553.85,1,O=C1OC(=O)c2c(Br)c(Br)c(Br)c(Br)c21,le15,0,0,0,0
"Cyclotrisiloxane, 2,4,6-trimethyl-2,4,6-tris(3,3,3-trifluoropropyl)-",380.25,1,C[Si]1(CCC(F)(F)F)O[Si](C)(CCC(F)(F)F)O[Si](C)(CCC(F)(F)F)O1,le15,1,1,0,0
"Phenol, 2,4,6-triiodo-",418.25,1,Oc1c(I)cc(I)cc1I,le15,0,0,0,0
"Piperazine, 1,4-bis(3,4,5-trimethoxybenzoyl)-",636.85,1,COc1cc(C(=O)N2CCN(C(=O)c3cc(OC)c(OC)c(OC)c3)CC2)cc(OC)c1OC,le15,0,0,0,0
"Anthra(2,1-d:6,5-d')bisthiazole-6,12-dione, 2,8-diphenyl-",666.75,1,O=C1c2ccc3nc(-c4ccccc4)sc3c2C(=O)c2ccc3nc(-c4ccccc4)sc3c21,le15,0,0,0,0
tetratriacontane,618.45,1,CCCCCCCCCCCCCCCCCCCCCCCCCCCCCCCCCC,le15,0,0,0,0
"Phosphonic acid, ((ethylthio)methylidyne)tris-, hexaethyl ester",538.45,1,CCOP(=O)(OCC)C(SCC)(P(=O)(OCC)OCC)P(=O)(OCC)OCC,le15,0,0,0,1
"Benzene, 1,2,3,4,5-pentabromo-6-methyl-",459.65,1,Cc1c(Br)c(Br)c(Br)c(Br)c1Br,le15,0,0,0,0
"Leucine, N-(N-acetyl-3-(p-(bis(2-chloroethyl)amino)phenyl)-DL-alanyl)-",642.25,1,CC(=O)NC(Cc1ccc(N(CCCl)CCCl)cc1)C(=O)N[C@@H](CC(C)C)C(=O)O,le15,0,0,0,0
"Phenol, pentabromo-",440.05,1,Oc1c(Br)c(Br)c(Br)c(Br)c1Br,le15,0,0,0,0
"1,1,1,2,2,3,3,4,4,5,5,6,6,7,7-pentadecafluoro-7-iodoheptane",330.25,1,FC(F)(F)C(F)(F)C(F)(F)C(F)(F)C(F)(F)C(F)(F)C(F)(F)I,le15,0,0,0,0
"1-bromo-1,1,2,2,3,3,4,4,5,5,6,6,7,7,8,8,8-heptadecafluorooctane",314.05,1,FC(F)(F)C(F)(F)C(F)(F)C(F)(F)C(F)(F)C(F)(F)C(F)(F)C(F)(F)Br,le15,0,0,0,0
"Benzoic acid, 2,3,5-triiodo-",503.15,1,O=C(O)c1cc(I)cc(I)c1I,le15,0,0,0,1
"Phenarsazine, 10,10'-oxydi-",517.05,1,c1ccc2c(c1)Nc1ccccc1[As]2O[As]1c2ccccc2Nc2ccccc21,le15,0,1,0,0
"Benzimidazole, 4,5,6,7-tetrabromo-2-(trifluoromethyl)-",511.95,1,FC(F)(F)c1nc2c(Br)c(Br)c(Br)c(Br)c2[nH]1,le15,0,0,0,0
"10H-Phenoxarsine, 10,10'-oxybis- (9CI)",487.25,1,c1ccc2c(c1)Oc1ccccc1[As]2O[As]1c2ccccc2Oc2ccccc21,le15,0,1,0,0
"triheptyl benzene-1,2,4-tricarboxylate",504.85,1,CCCCCCCOC(=O)c1ccc(C(=O)OCCCCCCC)c(C(=O)OCCCCCCC)c1,le15,0,0,0,0
"Hexadecanoic acid, octadecyl ester",556.75,1,CCCCCCCCCCCCCCCCCCOC(=O)CCCCCCCCCCCCCCC,le15,0,0,0,1
"5,9,14,18-Anthrazinetetrone, 7,16-dichloro-6,15-dihydro-",703.75,1,O=c1c2ccccc2c(=O)c2c1cc(Cl)c1[nH]c3c([nH]c12)c(Cl)cc1c(=O)c2ccccc2c(=O)c13,le15,0,0,0,0
"Decanoic acid, nonadecafluoro-",355.85,1,O=C(O)C(F)(F)C(F)(F)C(F)(F)C(F)(F)C(F)(F)C(F)(F)C(F)(F)C(F)(F)C(F)(F)F,le15,0,0,0,1
"Propanoic acid, 3,3'-thiobis-, didodecyl ester",537.95,1,CCCCCCCCCCCCOC(=O)CCSCCC(=O)OCCCCCCCCCCCC,le15,0,0,0,1
"1,2-Benzenedicarboxylic acid, ditridecyl ester",547.35,1,CCCCCCCCCCCCCOC(=O)c1ccccc1C(=O)OCCCCCCCCCCCCC,le15,0,0,0,1
"Lycopene, all-trans- (8CI)",623.85,1,CC(C)=CCC/C(C)=C/C=C/C(C)=C/C=C/C(C)=C/C=C/C=C(C)/C=C/C=C(C)/C=C/C=C(\C)CCC=C(C)C,le15,0,0,0,0
"beta-Carotene, all-trans-",619.15,1,CC1=C(/C=C/C(C)=C/C=C/C(C)=C/C=C/C=C(C)/C=C/C=C(C)/C=C/C2=C(C)CCCC2(C)C)C(C)(C)CCC1,le15,0,0,0,0
"1,1,1,2,2,3,3,4,4,5,5,6,6,7,7,8,8,9,9,10,10,10-docosafluorodecane",328.65,1,FC(F)(F)C(F)(F)C(F)(F)C(F)(F)C(F)(F)C(F)(F)C(F)(F)C(F)(F)C(F)(F)C(F)(F)F,le15,0,0,0,0
"Phenol, 4,4'-isopropylidenebis(2,6-dibromo- (8CI)",479.75,1,CC(C)(c1cc(Br)c(O)c(Br)c1)c1cc(Br)c(O)c(Br)c1,le15,0,0,0,0
"1,2,4-Benzenetricarboxylic acid, 1,2,4-tris(2-ethylhexyl) ester",511.45,1,CCCCC(CC)COC(=O)c1ccc(C(=O)OCC(CC)CCCC)c(C(=O)OCC(CC)CCCC)c1,le15,0,0,0,1
"Benzene, 1,2,3,4,5,6-hexabromo-",472.75,1,Brc1c(Br)c(Br)c(Br)c(Br)c1Br,le15,0,0,0,0
"beta,beta-Carotene-4,4'-dione (9CI)",527.05,1,CC1=C(/C=C/C(C)=C/C=C/C(C)=C/C=C/C=C(C)/C=C/C=C(C)/C=C/C2=C(C)C(=O)CCC2(C)C)C(C)(C)CCC1=O,le15,0,0,0,0
"Benzenepropanoic acid, 3-amino-alpha-ethyl-2,4,6-triiodo-",546.95,1,CCC(Cc1c(I)cc(I)c(N)c1I)C(=O)O,le15,0,0,0,1
"Hydrocinnamic acid, alpha-ethyl-3-hydroxy-2,4,6-triiodo-",504.55,1,CCC(Cc1c(I)cc(I)c(O)c1I)C(=O)O,le15,0,0,0,1
"Octadecanamide, N,N'-ethylenebis- (8CI)",373.85,1,CCCCCCCCCCCCCCCCCC(=O)NCCNC(=O)CCCCCCCCCCCCCCCCC,le15,0,0,0,0
"1,1,1,2,2,3,3,4,4,5,5,6,6,7,7,8,8,9,9-nonadecafluoro-9-iodononane",352.85,1,FC(F)(F)C(F)(F)C(F)(F)C(F)(F)C(F)(F)C(F)(F)C(F)(F)C(F)(F)C(F)(F)I,le15,0,0,0,0
"Benzoic acid, 3,5-bis(acetylamino)-2,4,6-triiodo-",598.35,1,CC(=O)Nc1c(I)c(NC(C)=O)c(I)c(C(=O)O)c1I,le15,0,0,0,1
"Benzoic acid, 3-(acetylamino)-2,4,6-triiodo-5-((methylamino)carbonyl)-",541.55,1,CNC(=O)c1c(I)c(NC(C)=O)c(I)c(C(=O)O)c1I,le15,0,0,0,1
tetratetracontane,721.35,1,CCCCCCCCCCCCCCCCCCCCCCCCCCCCCCCCCCCCCCCCCCCC,le15,0,0,0,0
[2-hydroxy-3-[(Z)-octadec-9-enoyl]oxypropyl] (Z)-octadec-9-enoate,462.35,1,CCCCCCCC/C=C\CCCCCCCC(=O)OCC(O)COC(=O)CCCCCCC/C=C\CCCCCCCC,le15,0,0,0,0
"Benzoic acid, 3-(acetylamino)-5-(acetylmethylamino)-2,4,6-triiodo-",637.45,1,CC(=O)CNc1c(I)c(NC(C)=O)c(I)c(C(=O)O)c1I,le15,0,0,0,1
"Benzoic acid, 4-(4-acetyl-3-iodophenoxy)-3,5-diiodo-",572.75,1,CC(=O)c1ccc(Oc2c(I)cc(C(=O)O)cc2I)cc1I,le15,0,0,0,1
"Cholesterol, (p-(bis(2-chloroethyl)amino)phenyl)acetate (8CI)",642.35,1,CC(C)CCC[C@@H](C)[C@H]1CC[C@H]2[C@@H]3CC=C4C[C@@H](OC(=O)Cc5ccc(N(CCCl)CCCl)cc5)CC[C@]4(C)[C@H]3CC[C@@]21C,le15,0,0,0,0
Bis(perfluorohexyl)ether,345.95,1,FC(F)(F)C(F)(F)C(F)(F)C(F)(F)C(F)(F)C(F)(F)OC(F)(F)C(F)(F)C(F)(F)C(F)(F)C(F)(F)C(F)(F)F,le15,0,0,0,0
"1-Butanamine, 1,1,2,2,3,3,4,4,4-nonafluoro-N,N-bis(nonafluorobutyl)-",337.25,1,FC(F)(F)C(F)(F)C(F)(F)C(F)(F)N(C(F)(F)C(F)(F)C(F)(F)C(F)(F)F)C(F)(F)C(F)(F)C(F)(F)C(F)(F)F,le15,0,0,0,0
"alpha-D-Glucopyranoside, 1,3,4,6-tetra-O-acetyl-beta-D-fructofuranosyl",548.15,1,CC(=O)OC[C@H]1O[C@@](COC(C)=O)(O[C@H]2O[C@H](CO)[C@@H](O)[C@H](O)[C@H]2O)[C@@H](OC(C)=O)[C@@H]1OC(C)=O,le15,0,0,0,0
"Propanoic acid, 3,3'-thiobis-, dioctadecyl ester",596.85,1,CCCCCCCCCCCCCCCCCCOC(=O)CCSCCC(=O)OCCCCCCCCCCCCCCCCCC,le15,0,0,0,1
"1-Propanol, 2,3-dibromo-, phosphate (3:1)",556.05,1,O=P(O)(O)O.OCC(Br)CBr.OCC(Br)CBr.OCC(Br)CBr,le15,0,0,0,0
"2,3-di(tetradecanoyloxy)propyl tetradecanoate",544.05,1,CCCCCCCCCCCCCC(=O)OCC(COC(=O)CCCCCCCCCCCCC)OC(=O)CCCCCCCCCCCCC,le15,0,0,0,0
"Cyclotetrasiloxane, octaphenyl-",473.15,1,c1ccc([Si]2(c3ccccc3)O[Si](c3ccccc3)(c3ccccc3)O[Si](c3ccccc3)(c3ccccc3)O[Si](c3ccccc3)(c3ccccc3)O2)cc1,le15,1,1,0,0
"3,3-Bis(4-hydroxy-3,5-diiodophenyl)-1(3H)-isobenzofuranone",624.95,1,O=C1OC(c2cc(I)c(O)c(I)c2)(c2cc(I)c(O)c(I)c2)c2ccccc21,le15,0,0,0,0
"2,3-bis[[(Z)-octadec-9-enoyl]oxy]propyl (Z)-octadec-9-enoate",575.75,1,CCCCCCCC/C=C\CCCCCCCC(=O)OCC(COC(=O)CCCCCCC/C=C\CCCCCCCC)OC(=O)CCCCCCC/C=C\CCCCCCCC,le15,0,0,0,0
"Benzene, 1,1'-oxybis(2,3,4,5,6-pentabromo-",514.55,1,Brc1c(Br)c(Br)c(Oc2c(Br)c(Br)c(Br)c(Br)c2Br)c(Br)c1Br,le15,0,0,0,0
Cyclopentanamine,284.6,1,NC1CCCC1,didier14,0,0,0,0
Ethylbenzene,296.1,1,CCc1ccccc1,didier14,0,0,0,0
"Benzenamine, N-methyl-",351.0,1,CNc1ccccc1,didier14,0,0,0,0
Diphenyl ether,388.1,1,c1ccc(Oc2ccccc2)cc1,didier14,0,0,0,0
2-Ethylhexanol,346.0,1,CCCCC(CC)CO,didier14,0,0,0,0
"1,4-Diethylbenzene",330.0,1,CCc1ccc(CC)cc1,didier14,0,0,0,0
"1-Pentanol, 2-methyl-",323.1,1,CCCC(C)CO,didier14,0,0,0,0
Ethyl propionate,285.0,1,CCOC(=O)CC,didier14,0,0,0,0
"Ethane, 1,1-diethoxy-",286.1,1,CCOC(C)OCC,didier14,0,0,0,0
"2,4-Dimethylphenol",368.1,1,Cc1ccc(O)c(C)c1,didier14,0,0,0,0
3-Heptanone,310.1,1,CCCCC(=O)CC,didier14,0,0,0,0
"1,4-Dimethylbenzene",299.0,1,Cc1ccc(C)cc1,didier14,0,0,0,0
p-Toluidine,360.0,1,Cc1ccc(N)cc1,didier14,0,0,0,0
Isobutyl acrylate,304.3,1,C=CC(=O)OCC(C)C,didier14,0,0,0,0
"Pentane, 3,3-diethyl-",294.0,1,CCC(CC)(CC)CC,didier14,0,0,0,0
"1,3-Butadiene",197.2,1,C=CC=C,didier14,0,0,0,0
1-Propanethiol,253.2,1,CCCS,didier14,0,0,0,0
Propanenitrile,279.1,1,CCC#N,didier14,0,0,0,0
"Heptane, 2,2-dimethyl-",292.1,1,CCCCCC(C)(C)C,didier14,0,0,0,0
"1,2-Ethanediamine",311.0,1,NCCN,didier14,0,0,0,0
"Octane, 2,7-dimethyl-",310.9,1,CC(C)CCCCC(C)C,didier14,0,0,0,0
1-Phenylhexane,356.1,1,CCCCCCc1ccccc1,didier14,0,0,0,0
"Benzene, heptyl-",370.6,1,CCCCCCCc1ccccc1,didier14,0,0,0,0
2-Pentanone,280.0,1,CCCC(C)=O,didier14,0,0,0,0
Butyric acid,345.1,1,CCCC(=O)O,didier14,0,0,0,1
"2-Pentanol, 4-methyl-",314.0,1,CC(C)CC(C)O,didier14,0,0,0,0
Diisopropylamine,266.1,1,CC(C)NC(C)C,didier14,0,0,0,0
Isopropyl ether,245.0,1,CC(C)OC(C)C,didier14,0,0,0,0
"1,3-Dimethylbenzene",298.1,1,Cc1cccc(C)c1,didier14,0,0,0,0
"Phenol, 3-methyl-",359.1,1,Cc1cccc(O)c1,didier14,0,0,0,0
m-Toluidine,359.0,1,Cc1cccc(N)c1,didier14,0,0,0,0
"Pyridine, 2,6-dimethyl-",306.0,1,Cc1cccc(C)n1,didier14,0,0,0,0
Mesitylene,317.6,1,Cc1cc(C)cc(C)c1,didier14,0,0,0,0
"Cyclohexane, methyl-",269.1,1,CC1CCCCC1,didier14,0,0,0,0
Toluene,279.1,1,Cc1ccccc1,didier14,0,0,0,0
"Pyridine, 4-methyl-",312.1,1,Cc1ccncc1,didier14,0,0,0,0
Cyclohexanamine,299.6,1,NC1CCCCC1,didier14,0,0,0,0
Phenol,352.1,1,Oc1ccccc1,didier14,0,0,0,0
"Pyridine, 3-methyl-",309.1,1,Cc1cccnc1,didier14,0,0,0,0
"Pyridine, 2-methyl-",299.1,1,Cc1ccccn1,didier14,0,0,0,0
"Butanoic acid, butyl ester",323.1,1,CCCCOC(=O)CCC,didier14,0,0,0,1
Valeric acid,359.1,1,CCCCC(=O)O,didier14,0,0,0,1
Propyl acetate,283.7,1,CCCOC(C)=O,didier14,0,0,0,0
Pentane,224.2,1,CCCCC,didier14,0,0,0,0
1-Pentene,222.0,1,C=CCCC,didier14,0,0,0,0
1-Chlorobutane,263.8,1,CCCCCl,didier14,0,0,0,0
Butanenitrile,291.1,1,CCCC#N,didier14,0,0,0,0
"1,3-Diaminopropane",322.1,1,NCCCN,didier14,0,0,0,0
Butanethiol,274.1,1,CCCCS,didier14,0,0,0,0
"Ethanol, 2-methoxy-",312.1,1,COCCO,didier14,0,0,0,0
"2-Hexanone, 5-methyl-",308.1,1,CC(=O)CCC(C)C,didier14,0,0,0,0
Isobutyl acetate,291.0,1,CC(=O)OCC(C)C,didier14,0,0,0,0
2-Heptanone,312.1,1,CCCCCC(C)=O,didier14,0,0,0,0
Amylamine,280.1,1,CCCCCN,didier14,0,0,0,0
Valeraldehyde,285.1,1,CCCCC=O,didier14,0,0,0,0
1-Pentanethiol,291.1,1,CCCCCS,didier14,0,0,0,0
"1,2-Dimethoxyethane",271.5,1,COCCOC,didier14,0,0,0,0
Pyridine,293.1,1,c1ccncc1,didier14,0,0,0,0
2-Octanone,329.1,1,CCCCCCC(C)=O,didier14,0,0,0,0
Heptanoic acid,388.1,1,CCCCCCC(=O)O,didier14,0,0,0,1
Pimelic acid,423.1,1,O=C(O)CCCCCC(=O)O,didier14,0,0,0,1
1-Hexanamine,300.1,1,CCCCCCN,didier14,0,0,0,0
Hexyl alcohol,333.1,1,CCCCCCO,didier14,0,0,0,0
1-Hexanethiol,305.6,1,CCCCCCS,didier14,0,0,0,0
n-Butylvinylether,272.0,1,C=COCCCC,didier14,0,0,0,0
Octane,287.1,1,CCCCCCCC,didier14,0,0,0,0
1-Octene,284.6,1,C=CCCCCCC,didier14,0,0,0,0
Heptaldehyde,308.1,1,CCCCCCC=O,didier14,0,0,0,0
Nonane,304.1,1,CCCCCCCCC,didier14,0,0,0,0
1-Octanol,359.7,1,CCCCCCCCO,didier14,0,0,0,0
"Ethanol, 2-(2-ethoxyethoxy)-",363.1,1,CCOCCOCCO,didier14,0,0,0,0
"1-Butanamine, N-butyl-",315.0,1,CCCCNCCCC,didier14,0,0,0,0
Undecane,339.1,1,CCCCCCCCCCC,didier14,0,0,0,0
Acetic acid octyl ester,356.1,1,CCCCCCCCOC(C)=O,didier14,0,0,0,1
Decyl alcohol,377.1,1,CCCCCCCCCCO,didier14,0,0,0,0
Decanal,358.1,1,CCCCCCCCCC=O,didier14,0,0,0,0
1-Dodecene,346.1,1,C=CCCCCCCCCCC,didier14,0,0,0,0
1-Undecanol,386.1,1,CCCCCCCCCCCO,didier14,0,0,0,0
Undecanal,369.1,1,CCCCCCCCCCC=O,didier14,0,0,0,0
1-Dodecanol,400.0,1,CCCCCCCCCCCCO,didier14,0,0,0,0
1-Tetradecanol,421.1,1,CCCCCCCCCCCCCCO,didier14,0,0,0,0
1-Octadecene,421.1,1,C=CCCCCCCCCCCCCCCCC,didier14,0,0,0,0
Triethylamine,262.1,1,CCN(CC)CC,didier14,0,0,0,0
"N,N-Dimethylaniline",348.1,1,CN(C)c1ccccc1,didier14,0,0,0,0
4-Heptanone,307.1,1,CCCC(=O)CCC,didier14,0,0,0,0
Propionaldehyde,243.2,1,CCC=O,didier14,0,0,0,0
"1-Butanol, 3-methyl-",316.0,1,CC(C)CCO,didier14,0,0,0,0
Butyraldehyde,262.1,1,CCCC=O,didier14,0,0,0,0
Butyl acetate,298.1,1,CCCCOC(C)=O,didier14,0,0,0,0
2-Octanol,344.1,1,CCCCCCC(C)O,didier14,0,0,0,0
Octanoic acid,400.1,1,CCCCCCCC(=O)O,didier14,0,0,0,1
"1,6-Hexanediamine",354.1,1,NCCCCCCN,didier14,0,0,0,0
1-Nonene,299.1,1,C=CCCCCCCC,didier14,0,0,0,0
Octanal,324.1,1,CCCCCCCC=O,didier14,0,0,0,0
Decane,322.9,1,CCCCCCCCCC,didier14,0,0,0,0
1-Nonanal,336.1,1,CCCCCCCCC=O,didier14,0,0,0,0
Dimethylamine,223.2,1,CNC,didier14,0,0,0,0
1-Pentadecene,385.1,1,C=CCCCCCCCCCCCCC,didier14,0,0,0,0
"1,2-Diethylbenzene",330.4,1,CCc1ccccc1CC,didier14,0,0,0,0
"1-Butanol, 2-methyl-",316.1,1,CCC(C)CO,didier14,0,0,0,0
sec-Butylamine,254.2,1,CCC(C)N,didier14,0,0,0,0
Ethyl acetate,269.0,1,CCOC(C)=O,didier14,0,0,0,0
"1,3-Diethylbenzene",329.0,1,CCc1cccc(CC)c1,didier14,0,0,0,0
Hexanoic acid,375.1,1,CCCCCC(=O)O,didier14,0,0,0,1
Dipropylamine,280.6,1,CCCNCCC,didier14,0,0,0,0
Lauric acid,437.0,1,CCCCCCCCCCCC(=O)O,didier14,0,0,0,1
1-Nonanol,369.1,1,CCCCCCCCCO,didier14,0,0,0,0
NONYL ACETATE,372.1,1,CCCCCCCCCOC(C)=O,didier14,0,0,0,0
"Hexanoicacid, 2-ethyl-",383.1,1,CCCCC(CC)C(=O)O,didier14,0,0,0,1
1-PROPOXY-2-PROPANOL,321.1,1,CCCOCC(C)O,didier14,0,0,0,0
"Heptane, 3-ethyl-",296.1,1,CCCCC(CC)CC,didier14,0,0,0,0
"Nonane, 5-methyl-",312.0,1,CCCCC(C)CCCC,didier14,0,0,0,0
1-Heptanethiol,323.6,1,CCCCCCCS,didier14,0,0,0,0
"Cyclopentane, ethyl-",273.1,1,CCC1CCCC1,didier14,0,0,0,0
"Cyclohexane, ethyl-",291.1,1,CCC1CCCCC1,didier14,0,0,0,0
"Cyclohexane, butyl-",325.6,1,CCCCC1CCCCC1,didier14,0,0,0,0
"Nonane, 4-methyl-",317.1,1,CCCCCC(C)CCC,didier14,0,0,0,0
"Octane, 3-methyl-",298.6,1,CCCCCC(C)CC,didier14,0,0,0,0
"Octane, 4-methyl-",296.1,1,CCCCC(C)CCC,didier14,0,0,0,0
"Ethanol, 2-propoxy-",322.1,1,CCCOCCO,didier14,0,0,0,0
"Octane, 2-methyl-",299.1,1,CCCCCCC(C)C,didier14,0,0,0,0
Decanoic acid,421.1,1,CCCCCCCCCC(=O)O,didier14,0,0,0,1
"1-Hexene, 3-methyl-",267.1,1,C=CC(C)CCC,didier14,0,0,0,0
"1,2,3,4-Tetramethylbenzene",347.1,1,Cc1ccc(C)c(C)c1C,didier14,0,0,0,0
5-Nonanone,338.1,1,CCCCC(=O)CCCC,didier14,0,0,0,0
1-Butoxy-2-propanol,332.1,1,CCCCOCC(C)O,didier14,0,0,0,0
"2-Butene, 2-methyl-",228.2,1,CC=C(C)C,didier14,0,0,0,0
"1,2,3-Trimethylbenzene",324.1,1,Cc1cccc(C)c1C,didier14,0,0,0,0
"2,3-Dimethylphenol",368.1,1,Cc1cccc(O)c1C,didier14,0,0,0,0
"Benzene, pentyl-",339.1,1,CCCCCc1ccccc1,didier14,0,0,0,0
2-Heptanol,332.1,1,CCCCCC(C)O,didier14,0,0,0,0
"Pentane, 1-chloro-",284.1,1,CCCCCCl,didier14,0,0,0,0
Hexadecane,407.1,1,CCCCCCCCCCCCCCCC,didier14,0,0,0,0
"1-Butene, 3,3-dimethyl-",241.2,1,C=CC(C)(C)C,didier14,0,0,0,0
"1-Butene, 3-methyl-",217.2,1,C=CC(C)C,didier14,0,0,0,0
"2-Butene, 2,3-dimethyl-",257.1,1,CC(C)=C(C)C,didier14,0,0,0,0
3-Methyl-2-butanone,272.1,1,CC(=O)C(C)C,didier14,0,0,0,0
"2-Pentanone, 3-methyl-",285.1,1,CCC(C)C(C)=O,didier14,0,0,0,0
"3-Pentanone, 2-methyl-",286.1,1,CCC(=O)C(C)C,didier14,0,0,0,0
Stearic acid,469.0,1,CCCCCCCCCCCCCCCCCC(=O)O,didier14,0,0,0,1
"2,6-Dimethylphenol",358.1,1,Cc1cccc(C)c1O,didier14,0,0,0,0
"Hexane, 3,4-dimethyl-",280.6,1,CCC(C)C(C)CC,didier14,0,0,0,0
3-Pentanol,303.1,1,CCC(O)CC,didier14,0,0,0,0
"1-Pentanol, 3-methyl-",331.1,1,CCC(C)CCO,didier14,0,0,0,0
"Hexane, 2,4-dimethyl-",276.1,1,CCC(C)CC(C)C,didier14,0,0,0,0
"Heptane, 4-methyl-",279.1,1,CCCC(C)CCC,didier14,0,0,0,0
"Heptane, 3-methyl-",279.1,1,CCCCC(C)CC,didier14,0,0,0,0
"Nonane, 3-methyl-",319.1,1,CCCCCCC(C)CC,didier14,0,0,0,0
2-Hexanone,296.1,1,CCCCC(C)=O,didier14,0,0,0,0
Allyl acetate,283.0,1,C=CCOC(C)=O,didier14,0,0,0,0
"Hexane, 2,5-dimethyl-",275.1,1,CC(C)CCC(C)C,didier14,0,0,0,0
"Heptane, 2-methyl-",279.1,1,CCCCCC(C)C,didier14,0,0,0,0
1-Hexene,247.2,1,C=CCCCC,didier14,0,0,0,0
1-Heptene,265.1,1,C=CCCCCC,didier14,0,0,0,0
"2,2-Dimethylbutyric acid",352.1,1,CCC(C)(C)C(=O)O,didier14,0,0,0,1
"2-Butanol, 3-methyl-",299.1,1,CC(C)C(C)O,didier14,0,0,0,0
Diethyl ether,228.2,1,CCOCC,didier14,0,0,0,0
2-Pentanol,307.1,1,CCCC(C)O,didier14,0,0,0,0
"1-Hexene, 2-methyl-",267.1,1,C=C(C)CCCC,didier14,0,0,0,0
"Hexane, 3-ethyl-",278.0,1,CCCC(CC)CC,didier14,0,0,0,0
m-Ethyltoluene,311.1,1,CCc1cccc(C)c1,didier14,0,0,0,0
"Cyclohexane, 1,4-dimethyl-, cis-",284.3,1,C[C@H]1CC[C@@H](C)CC1,didier14,0,0,0,0
Aniline,344.1,1,Nc1ccccc1,didier14,0,0,0,0
2-Hexanol,318.1,1,CCCCC(C)O,didier14,0,0,0,0
"Propane, 1-ethoxy-",253.2,1,CCCOCC,didier14,0,0,0,0
Amyl acetate,310.1,1,CCCCCOC(C)=O,didier14,0,0,0,0
Hexanenitrile,316.1,1,CCCCCC#N,didier14,0,0,0,0
Tridecane,363.1,1,CCCCCCCCCCCCC,didier14,0,0,0,0
Tetradecane,382.4,1,CCCCCCCCCCCCCC,didier14,0,0,0,0
1-Hexadecene,402.1,1,C=CCCCCCCCCCCCCCC,didier14,0,0,0,0
Heptadecane,421.1,1,CCCCCCCCCCCCCCCCC,didier14,0,0,0,0
Nonadecane,441.0,1,CCCCCCCCCCCCCCCCCCC,didier14,0,0,0,0
Ethanol,286.1,1,CCO,didier14,0,0,0,0
Benzoic acid,394.3,1,O=C(O)c1ccccc1,didier14,0,0,0,1
1-HEXANAL,300.0,1,CCCCCC=O,didier14,0,0,0,0
Isopropanol,285.1,1,CC(C)O,didier14,0,0,0,0
1-Propanol,297.6,1,CCCO,didier14,0,0,0,0
1-Butanol,310.5,1,CCCCO,didier14,0,0,0,0
1-Pentanol,322.1,1,CCCCCO,didier14,0,0,0,0
Benzene,262.0,1,c1ccccc1,didier14,0,0,0,0
"Pentane, 2,2,3,3-tetramethyl-",294.6,1,CCC(C)(C)C(C)(C)C,didier14,0,0,0,0
"3,3,5-Trimethylheptane",304.0,1,CCC(C)CC(C)(C)CC,didier14,0,0,0,0
Dimethyl sulfide,237.2,1,CSC,didier14,0,0,0,0
2-Chloropropane,238.2,1,CC(C)Cl,didier14,0,0,0,0
Isopropylamine,236.2,1,CC(C)N,didier14,0,0,0,0
2-Propanethiol,239.0,1,CC(C)S,didier14,0,0,0,0
"Ethane, 1,1-dichloro-",263.1,1,CC(Cl)Cl,didier14,0,0,0,0
tert-Butanol,284.3,1,CC(C)(C)O,didier14,0,0,0,0
"2-Butanol, 2-methyl-",292.1,1,CCC(C)(C)O,didier14,0,0,0,0
Pinacolone,282.1,1,CC(=O)C(C)(C)C,didier14,0,0,0,0
"1-Pentene, 3-methyl-",245.2,1,C=CC(C)CC,didier14,0,0,0,0
"3-Pentanol, 3-methyl-",297.1,1,CCC(C)(O)CC,didier14,0,0,0,0
"1,2-Dimethoxypropane",273.1,1,COCC(C)OC,didier14,0,0,0,0
2-Methyl-1-propanol,302.3,1,CC(C)CO,didier14,0,0,0,0
"Butane, 2-chloro-",258.1,1,CCC(C)Cl,didier14,0,0,0,0
sec-Butanol,296.1,1,CCC(C)O,didier14,0,0,0,0
Methyl acetate,260.1,1,COC(C)=O,didier14,0,0,0,0
2-Nonanone,345.5,1,CCCCCCCC(C)=O,didier14,0,0,0,0
"1,1':2',1''-Terphenyl",436.0,1,c1ccc(-c2ccccc2-c2ccccc2)cc1,didier14,0,0,0,0
"Nonane, 2-methyl-",314.0,1,CCCCCCCC(C)C,didier14,0,0,0,0
1-Decene,320.1,1,C=CCCCCCCCC,didier14,0,0,0,0
"Phenol, 2-ethyl-",358.1,1,CCc1ccccc1O,didier14,0,0,0,0
3-Nonanone,339.1,1,CCCCCCC(=O)CC,didier14,0,0,0,0
6-Undecanone,361.5,1,CCCCCC(=O)CCCCC,didier14,0,0,0,0
p-Terphenyl,480.0,1,c1ccc(-c2ccc(-c3ccccc3)cc2)cc1,didier14,0,0,0,0
"1,2-Dimethylbenzene",305.1,1,Cc1ccccc1C,didier14,0,0,0,0
"Benzenamine, 2-methyl-",358.1,1,Cc1ccccc1N,didier14,0,0,0,0
"1,2,4-TRIMETHYL BENZENE",318.6,1,Cc1ccc(C)c(C)c1,didier14,0,0,0,0
"1,2,4,5-Tetramethylbenzene",346.1,1,Cc1cc(C)c(C)cc1C,didier14,0,0,0,0
3-Pentanone,280.1,1,CCC(=O)CC,didier14,0,0,0,0
2-Ethyl-1-butanol,326.1,1,CCC(CC)CO,didier14,0,0,0,0
p-DIMETHYLAMINOBENZALDEHYDE,420.1,1,CN(C)c1ccc(C=O)cc1,didier14,0,0,0,0
p-DIISOPROPYLBENZENE,354.1,1,CC(C)c1ccc(C(C)C)cc1,didier14,0,0,0,0
3-METHYLUNDECANE,344.0,1,CCCCCCCCC(C)CC,didier14,0,0,0,0
n-PENTADECANOIC acid,454.0,1,CCCCCCCCCCCCCCC(=O)O,didier14,0,0,0,1
DIETHYLETHANOLAMINE,321.1,1,CCN(CC)CCO,didier14,0,0,0,0
STYRENE,305.0,1,C=Cc1ccccc1,didier14,0,0,0,0
BENZYL CHLORIDE,333.1,1,ClCc1ccccc1,didier14,0,0,0,0
BENZYLAMINE,333.1,1,NCc1ccccc1,didier14,0,0,0,0
BENZONITRILE,344.1,1,N#Cc1ccccc1,didier14,0,0,0,0
BENZYL ALCOHOL,366.1,1,OCc1ccccc1,didier14,0,0,0,0
BENZALDEHYDE,335.1,1,O=Cc1ccccc1,didier14,0,0,0,0
BENZYL MERCAPTAN,343.1,1,SCc1ccccc1,didier14,0,0,0,0
NICOTINONITRILE,357.1,1,N#Cc1cccnc1,didier14,0,0,0,0
ANISOLE,325.1,1,COc1ccccc1,didier14,0,0,0,0
METHYL PHENYL SULFIDE,342.0,1,CSc1ccccc1,didier14,0,0,0,0
m-METHYLSTYRENE,324.1,1,C=Cc1cccc(C)c1,didier14,0,0,0,0
"1,4-DI-tert-BUTYLBENZENE",361.0,1,CC(C)(C)c1ccc(C(C)(C)C)cc1,didier14,0,0,0,0