compound,flashpoint,pure substance,smiles,source,is_silicon,is_metallic,is_tin,is_acid
Ethyllactate,319.15,1,CCOC(=O)C(C)O,le15,0,0,0,0
Ethylmethyldichlorosilane,275.15,1,CC[Si](C)(Cl)Cl,le15,1,1,0,0
Ethylmethylether,235.95,1,CCOC,le15,0,0,0,0
Ethylnitrate,283.15,1,CCO[N+](=O)[O-],le15,0,0,0,0
Ethylpropionate,285.15,1,CCOC(=O)CC,le15,0,0,0,0
EthylSilane-,213.15,1,CC[SiH3],le15,1,1,0,0
Ethyltrichlorosilane,300.15,1,CC[Si](Cl)(Cl)Cl,le15,1,1,0,0
EthylTriethoxySilane,313.15,1,CCO[Si](CC)(OCC)OCC,le15,1,1,0,0
EthylTrimethoxySilane,300.15,1,CC[Si](OC)(OC)OC,le15,1,1,0,0
EthylTrimethylSilane,300.15,1,CC[Si](C)(C)C,le15,1,1,0,0
Ethylvinylether,255.15,1,C=COCC,le15,0,0,0,0
Ethynylbenzene,304.15,1,C#Cc1ccccc1,le15,0,0,0,0
Fluorobenzene,258.15,1,Fc1ccccc1,le15,0,0,0,0
Furfurylacetate,358.15,1,O=C([O-])CCc1ccco1,le15,0,0,0,0
Heptadecane,421.15,1,CCCCCCCCCCCCCCCCC,le15,0,0,0,0
HeptamethylDisilazane,300.15,1,CN([Si](C)(C)C)[Si](C)(C)C,le15,1,1,0,0
HeptamethylTrisiloxane,296.15,1,C[SiH](C)O[Si](C)(C)O[Si](C)(C)C,le15,1,1,0,0
Heptane,272.15,1,CCCCCCC,le15,0,0,0,0
Heptanoicacid,385.15,1,CCCCCCC(=O)O,le15,0,0,0,1
HeptylAcetate,340.15,1,CCCCCCCOC(C)=O,le15,0,0,0,0
Hexadecane,408.15,1,CCCCCCCCCCCCCCCC,le15,0,0,0,0
HexaethylDisiloxane,349.15,1,CC[Si](CC)(CC)O[Si](CC)(CC)CC,le15,1,1,0,0
HexafluoroBenzene,283.15,1,Fc1c(F)c(F)c(F)c(F)c1F,le15,0,0,0,0
HexamethylCycloTrisiloxane,305.15,1,C[Si]1(C)O[Si](C)(C)O[Si](C)(C)O1,le15,1,1,0,0
HexamethylDisilane-,272.15,1,C[Si](C)(C)[Si](C)(C)C,le15,1,1,0,0
HexamethylDisilaThiane,299.15,1,C[Si](C)(C)S[Si](C)(C)C,le15,1,1,0,0
HexamethylDisilazane,281.15,1,C[Si](C)(C)N[Si](C)(C)C,le15,1,1,0,0
Hexamethyleneimine,291.0,1,C1CCCNCC1,le15,0,0,0,0
HexamethylTrisiloxane,293.15,1,C[Si](C)(C)O[SiH2]O[Si](C)(C)C,le15,1,1,0,0
hexane,250.15,1,CCCCCC,le15,0,0,0,0
Hexanenitrile,316.15,1,CCCCCC#N,le15,0,0,0,0
Hexanoicacid,377.15,1,CCCCCC(=O)O,le15,0,0,0,1
Hexylacetate,318.15,1,CCCCCCOC(C)=O,le15,0,0,0,0
Hexylamine,282.05,1,CCCCCCN,le15,0,0,0,0
Hexylbenzene,353.15,1,CCCCCCc1ccccc1,le15,0,0,0,0
HexylDichloroSilane,337.15,1,CCCCCC[SiH](Cl)Cl,le15,1,1,0,0
HexylSilane,285.15,1,CCCCCC[SiH3],le15,1,1,0,0
HexylTrifluoroSilane-,266.15,1,CCCCCC[Si](F)(F)F,le15,1,1,0,0
HexylTrimethoxySilane,335.15,1,CCCCCC[Si](OC)(OC)OC,le15,1,1,0,0
hydroxyacetaldehyde,360.15,1,O=CCO,le15,0,0,0,0
Iodobenzene,347.15,1,Ic1ccccc1,le15,0,0,0,0
Isobutenal,273.0,1,C=C(C)C=O,le15,0,0,0,0
Isobutylacetate,291.15,1,CC(=O)OCC(C)C,le15,0,0,0,0
Isobutylalcohol,301.15,1,CC(C)CO,le15,0,0,0,0
Isobutylamine,264.15,1,CC(C)CN,le15,0,0,0,0
Isobutylbenzene,328.15,1,CC(C)Cc1ccccc1,le15,0,0,0,0
IsobutylButyrate,323.15,1,CCCC(=O)OCC(C)C,le15,0,0,0,0
Isobutylformate,283.0,1,CC(C)COC=O,le15,0,0,0,0
Isobutylisobutyrate,313.0,1,CC(C)COC(=O)C(C)C,le15,0,0,0,0
IsobutylTrichloroSilane,310.15,1,CC(C)C[Si](Cl)(Cl)Cl,le15,1,1,0,0
IsobutylTrimethoxySilane,315.15,1,CO[Si](CC(C)C)(OC)OC,le15,1,1,0,0
Isobutylvinylether,264.15,1,C=COCC(C)C,le15,0,0,0,0
Isobutyraldehyde,254.85,1,CC(C)C=O,le15,0,0,0,0
Isobutyricacid,328.75,1,CC(C)C(=O)O,le15,0,0,0,1
Isobutyronitrile,281.0,1,CC(C)C#N,le15,0,0,0,0
Isocyanatobenzene,324.15,1,O=C=Nc1ccccc1,le15,0,0,0,0
Isopentylacetate,298.15,1,CC(=O)OCCC(C)C,le15,0,0,0,0
Isopentylalcohol,316.15,1,CC(C)CCO,le15,0,0,0,0
Isopentylbutyrate,332.15,1,CCCC(=O)OCCC(C)C,le15,0,0,0,0
Isoprene,219.15,1,C=CC(=C)C,le15,0,0,0,0
IsopropenylAcetate,288.75,1,C=C(C)CC(=O)[O-],le15,0,0,0,0
Isopropylacetate,275.15,1,CC(=O)OC(C)C,le15,0,0,0,0
Isopropylamine,256.15,1,CC(C)N,le15,0,0,0,0
Isopropylbenzoate,372.05,1,CC(C)OC(=O)c1ccccc1,le15,0,0,0,0
Isopropylchloride,241.15,1,CC(C)Cl,le15,0,0,0,0
Isopropylether,244.0,1,CC(C)OC(C)C,le15,0,0,0,0
Isopropylformate,267.15,1,CC(C)OC=O,le15,0,0,0,0
IsopropylVinylether,241.15,1,C=COC(C)C,le15,0,0,0,0
IsovalericAcid,343.0,1,CC(C)CC(=O)O,le15,0,0,0,0
Mesitylene,317.0,1,Cc1cc(C)cc(C)c1,le15,0,0,0,0
Methacrolein,258.15,1,C=C(C)C=O,le15,0,0,0,0
MethacryloxymethylTrimethylSilane,318.15,1,C=C(C)C(=O)OC[Si](C)(C)C,le15,1,1,0,0
Methanol,284.15,1,CO,le15,0,0,0,0
Methoxybenzene,324.15,1,COc1ccccc1,le15,0,0,0,0
MethoxyTrimethylSilane-,243.15,1,CO[Si](C)(C)C,le15,1,1,0,0
Methyl2propenoat-,270.15,1,C=CC(=O)OC,le15,0,0,0,0
methylacetate,263.15,1,COC(C)=O,le15,0,0,0,0
Methylacrylate,279.15,1,C=CC(=O)OC,le15,0,0,0,0
Methylbenzene,277.15,1,Cc1ccccc1,le15,0,0,0,0
Methylbenzoate,356.15,1,COC(=O)c1ccccc1,le15,0,0,0,0
Methylbutyrate,287.15,1,CCCC(=O)OC,le15,0,0,0,0
methylcyclohexane,269.15,1,CC1CCCCC1,le15,0,0,0,0
MethyldichloroSilane-,241.15,1,C[SiH](Cl)Cl,le15,1,1,0,0
Methylformate,254.15,1,COC=O,le15,0,0,0,0
MethylIsocyanate,255.15,1,CN=C=O,le15,0,0,0,0
MethylIsopropenylKetone,286.0,1,C=C(C)C(C)=O,le15,0,0,0,0
Methylisothiocyanate,305.35,1,CN=C=S,le15,0,0,0,0
Methylpropionate,271.15,1,CCC(=O)OC,le15,0,0,0,0
methylpropylether,253.15,1,CCCOC,le15,0,0,0,0
Methylsalicylate,369.15,1,COc1ccccc1C(=O)[O-],le15,0,0,0,0
methylsecbutylether,243.0,1,CCC(C)OC,le15,0,0,0,0
MethylthioBenzene,342.15,1,CSc1ccccc1,le15,0,0,0,0
MethylTriacetoxySilane,358.15,1,CC(=O)O[Si](C)(OC(C)=O)OC(C)=O,le15,1,1,0,0
Methyltrichlorosilane,276.15,1,C[Si](Cl)(Cl)Cl,le15,1,1,0,0
MethylTriethoxySilane,297.15,1,CCO[Si](C)(OCC)OCC,le15,1,1,0,0
MethylVinylDimethoxySilane,277.15,1,CC=C[SiH](OC)OC,le15,1,1,0,0
Methylvinylketone,266.15,1,C=CC(C)=O,le15,0,0,0,0
Nitrobenzene,360.95,1,O=[N+]([O-])c1ccccc1,le15,0,0,0,0
Nitroethane,301.15,1,CC[N+](=O)[O-],le15,0,0,0,0
Nonadecane,439.15,1,CCCCCCCCCCCCCCCCCCC,le15,0,0,0,0
Nonane,304.15,1,CCCCCCCCC,le15,0,0,0,0
NonylAcetate,372.15,1,CCCCCCCCCOC(C)=O,le15,0,0,0,0
Nonylbenzene,372.15,1,CCCCCCCCCc1ccccc1,le15,0,0,0,0
Nonylphenol,413.75,1,CCCCCCCCCc1ccccc1O,le15,0,0,0,0
Octadecane,438.15,1,CCCCCCCCCCCCCCCCCC,le15,0,0,0,0
OctamethylCyclotetrasilazane,339.15,1,C[Si]1(C)N[Si](C)(C)N[Si](C)(C)N[Si](C)(C)N1,le15,1,1,0,0
OctamethylCyclotetrasiloxane,330.15,1,C[Si]1(C)O[Si](C)(C)O[Si](C)(C)O[Si](C)(C)O1,le15,1,1,0,0
OctamethylTrisiloxane,303.15,1,C[Si](C)(C)O[Si](C)(C)O[Si](C)(C)C,le15,1,1,0,0
Octane,288.15,1,CCCCCCCC,le15,0,0,0,0
OctanoicAcid,254.15,1,CCCCCCCC(=O)O,le15,0,0,0,0
Octanoylchloride,355.15,1,CCCCCCCC(=O)Cl,le15,0,0,0,0
OctylAcetate,359.15,1,CCCCCCCCOC(C)=O,le15,0,0,0,0
Pentadecane,405.15,1,CCCCCCCCCCCCCCC,le15,0,0,0,0
Pentane,224.15,1,CCCCC,le15,0,0,0,0
PentanoicAcid,361.15,1,CCCCC(=O)O,le15,0,0,0,0
PentylAcetate,297.05,1,CCCCCOC(C)=O,le15,0,0,0,0
Pentylbenzene,338.15,1,CCCCCc1ccccc1,le15,0,0,0,0
Pentylformate,299.85,1,CCCCCOC=O,le15,0,0,0,0
Pentylsalicylate,405.15,1,CCCCCOc1ccccc1C(=O)[O-],le15,0,0,0,0
PhenacylChloride,391.15,1,O=C(CCl)c1ccccc1,le15,0,0,0,0
PhenethylDimethylChloroSilane,343.15,1,C[Si](C)(Cl)CCc1ccccc1,le15,1,1,0,0
PhenethylMethylDichloroSilane,353.15,1,Cl[SiH](Cl)CCCc1ccccc1,le15,1,1,0,0
PhenethylTrichloroSilane,364.15,1,Cl[Si](Cl)(Cl)CCc1ccccc1,le15,1,1,0,0
Phenetole,335.95,1,CCOc1ccccc1,le15,0,0,0,0
Phenol,352.15,1,Oc1ccccc1,le15,0,0,0,0
PhenylAcetate,353.15,1,O=C([O-])Cc1ccccc1,le15,0,0,0,0
PhenylDichloroSilane,321.15,1,Cl[SiH](Cl)c1ccccc1,le15,1,1,0,0
PhenylDimethylAcetoxySilane,345.15,1,CC(C)C(=O)O[SiH2]c1ccccc1,le15,1,1,0,0
PhenylDimethylChloroSilane,334.15,1,C[Si](C)(Cl)c1ccccc1,le15,1,1,0,0
PhenylDimethylSilane,311.15,1,C[SiH](C)c1ccccc1,le15,1,1,0,0
PhenylEthylDichloroSilane,365.15,1,Cl[SiH](Cl)CCc1ccccc1,le15,1,1,0,0
PhenylIsothiocyanate,360.95,1,S=C=Nc1ccccc1,le15,0,0,0,0
Phenylmethanethiol,343.15,1,SCc1ccccc1,le15,0,0,0,0
PhenylmethylAcetate,363.15,1,CC(=O)OCc1ccccc1,le15,0,0,0,0
PhenylMethylChloroSilane,335.15,1,Cl[SiH2]Cc1ccccc1,le15,1,1,0,0
PhenylMethylDichloroSilane,355.15,1,Cl[SiH](Cl)Cc1ccccc1,le15,1,1,0,0
PhenylMethylDiethoxySilane,362.15,1,CCO[SiH](Cc1ccccc1)OCC,le15,1,1,0,0
PhenylMethylSilane,298.15,1,[SiH3]Cc1ccccc1,le15,1,1,0,0
PhenylSilane,281.15,1,[SiH3]c1ccccc1,le15,1,1,0,0
PhenylTrichloroSilane,364.15,1,Cl[Si](Cl)(Cl)c1ccccc1,le15,1,1,0,0
PhenylTriethoxySilane,369.15,1,CCO[Si](OCC)(OCC)c1ccccc1,le15,1,1,0,0
PhenylTrifluoroSilane-,283.15,1,F[Si](F)(F)c1ccccc1,le15,1,1,0,0
PhenylTrimethoxySilane,359.15,1,CO[Si](OC)(OC)c1ccccc1,le15,1,1,0,0
Piperidine,289.15,1,C1CCNCC1,le15,0,0,0,0
PropanoicAcid,324.15,1,CCC(=O)O,le15,0,0,0,0