compound,flashpoint,pure substance,smiles,source,is_silicon,is_metallic,is_tin,is_acid
"Ethanamine, N,N-dimethyl-2-(1-phenyl-1-(2-pyridinyl)ethoxy)-",447.65,1,CN(C)CCOC(C)(c1ccccc1)c1ccccn1,le15,0,0,0,0
"1,3-Cyclopentanedicarboxylic acid, dibutyl ester",434.35,1,CCCCOC(=O)C1CCC(C(=O)OCCCC)C1,le15,0,0,0,1
octanoyl octanoate,415.55,1,CCCCCCCC(=O)OC(=O)CCCCCCC,le15,0,0,0,0
"1,2,3,4,6,9-Tetrathiadiazecine-5,10-dithione",483.95,1,S=C1N=CC=NC(=S)SSSS1,le15,0,0,0,0
heptadecanoic acid,431.55,1,CCCCCCCCCCCCCCCCC(=O)O,le15,0,0,0,1
propan-2-yl tetradecanoate,417.25,1,CCCCCCCCCCCCCC(=O)OC(C)C,le15,0,0,0,0
methyl hexadecanoate,425.95,1,CCCCCCCCCCCCCCCC(=O)OC,le15,0,0,0,0
Stearyl alcohol,411.85,1,CCCCCCCCCCCCCCCCCCO,le15,0,0,0,0
"Toluene, 4-chloro-3,5-dinitro-alpha,alpha,alpha-trifluoro-",399.15,1,O=[N+]([O-])c1cc(C(F)(F)F)cc([N+](=O)[O-])c1Cl,le15,0,0,0,0
1-nonoxynonane,402.45,1,CCCCCCCCCOCCCCCCCCC,le15,0,0,0,0
tribromo(fluoro)methane,289.65,1,FC(Br)(Br)Br,le15,0,0,0,0
"2H-1,4-Benzodiazepin-2-one, 7-chloro-1,3-dihydro-5-phenyl-",500.95,1,O=C1CN=C(c2ccccc2)c2cc(Cl)ccc2N1,le15,0,0,0,0
"1H-1,4-Benzodiazepine, 7-chloro-2,3-dihydro-1-methyl-5-phenyl-",471.55,1,CN1CCN=C(c2ccccc2)c2cc(Cl)ccc21,le15,0,0,0,0
"2,3-dichloro-1,1,1,2,3,4,4,4-octafluorobutane",273.75,1,FC(F)(F)C(F)(Cl)C(F)(Cl)C(F)(F)F,le15,0,0,0,0
"Phosphoric acid, 2,4-dichlorophenyl dimethyl ester",439.65,1,COP(=O)(OC)Oc1ccc(Cl)cc1Cl,le15,0,0,0,1
"Anthracene, 9-bromomethyl-",482.15,1,BrCc1c2ccccc2cc2ccccc12,le15,0,0,0,0
"Propanamide, 3-((4-bromophenyl)amino)-N,N-dimethyl- (9CI)",467.75,1,CN(C)C(=O)CCNc1ccc(Br)cc1,le15,0,0,0,0
"Benzene, 1,2,4-trichloro-3,5-dinitro-",435.95,1,O=[N+]([O-])c1cc(Cl)c(Cl)c([N+](=O)[O-])c1Cl,le15,0,0,0,0
"1,8-dibromooctane",386.15,1,BrCCCCCCCCBr,le15,0,0,0,0
"1,2,3,4,5,6,7,8-octafluoronaphthalene",347.45,1,Fc1c(F)c(F)c2c(F)c(F)c(F)c(F)c2c1F,le15,0,0,0,0
"9,10-Anthracenedione, 1,2,5,8-tetrahydroxy-",553.75,1,O=C1c2ccc(O)c(O)c2C(=O)c2c(O)ccc(O)c21,le15,0,0,0,0
"Benzamide, 4-methoxy-3-nitro-N-phenyl-",458.15,1,COc1ccc(C(=O)Nc2ccccc2)cc1[N+](=O)[O-],le15,0,0,0,0
"9H-Fluorene-9,9-dipropanenitrile (9CI)",522.45,1,N#CCCC1(CCC#N)c2ccccc2-c2ccccc21,le15,0,0,0,0
"1-Piperidineethanol, alpha-(5-phenyl-3-isoxazolyl)-",509.65,1,OC(CN1CCCCC1)c1cc(-c2ccccc2)on1,le15,0,0,0,0
"Estra-1,3,5(10)-triene-3,17-diol, (17beta)-",482.75,1,C[C@]12CC[C@@H]3c4ccc(O)cc4CC[C@H]3[C@@H]1CC[C@@H]2O,le15,0,0,0,0
"Tridecanedioic acid, dimethyl ester",413.95,1,COC(=O)CCCCCCCCCCCC(=O)OC,le15,0,0,0,1
"Phosphorodithioic acid, O,O-diethyl S-(tetrahydro-3-thienyl) ester",437.35,1,CCOP(=S)(OCC)SC1CCSC1,le15,0,0,0,1
"1,3-Cyclopentadiene, 1,2,3,4,5,5-hexachloro-",423.15,1,ClC1=C(Cl)C(Cl)(Cl)C(Cl)=C1Cl,le15,0,0,0,0
"1,4-dichloro-2-iodobenzene",367.05,1,Clc1ccc(Cl)c(I)c1,le15,0,0,0,0
"1,3-Dioxolo(4,5-g)furo(2,3-b)quinoline, 4,9-dimethoxy-",489.15,1,COc1c2ccoc2nc2c(OC)c3c(cc12)OCO3,le15,0,0,0,0
"Chrysene, 2-nitro-",531.95,1,O=[N+]([O-])c1ccc2c(ccc3c4ccccc4ccc23)c1,le15,0,0,0,0
"3,5-Pyridinedicarbonitrile, 2,6-dichloro-4-phenyl-",497.45,1,N#Cc1c(Cl)nc(Cl)c(C#N)c1-c1ccccc1,le15,0,0,0,0
"9H-Xanthen-9-one, 1,5,8-trihydroxy-3-methoxy- (9CI)",501.15,1,COc1cc(O)c2c(=O)c3c(O)ccc(O)c3oc2c1,le15,0,0,0,0
"2,2'-Dinitrobenzidine",529.05,1,Nc1ccc(-c2ccc(N)cc2[N+](=O)[O-])c([N+](=O)[O-])c1,le15,0,0,0,0
"(1,1'-Biphenyl)-4,4'-diamine, 3,3'-dinitro- (9CI)",527.75,1,Nc1ccc(-c2ccc(N)c([N+](=O)[O-])c2)cc1[N+](=O)[O-],le15,0,0,0,0
"Propiophenone, 2',4',6'-trihydroxy-3-(p-hydroxyphenyl)- (8CI)",564.25,1,O=C(CCc1ccc(O)cc1)c1c(O)cc(O)cc1O,le15,0,0,0,0
"2,5,8,10-Tetraoxatridec-12-enoic acid, 9-oxo-, 2-propenyl ester",418.45,1,C=CCOC(=O)OCCOCCOC(=O)OCC=C,le15,0,0,0,1
"Phosphorothioic acid, O,O-diethyl O-(2-(ethylsulfinyl)ethyl) ester",453.75,1,CCOP(=S)(OCC)OCCS(=O)CC,le15,0,0,0,1
Dicyclohexylphenylphosphine,474.25,1,c1ccc(P(C2CCCCC2)C2CCCCC2)cc1,le15,0,0,0,0
"Acetic acid, phenyl-, 3,7-dimethyl-6-octenyl ester",394.35,1,CC(C)=CCCC(C)CCOC(=O)Cc1ccccc1,le15,0,0,0,1
"Dodecanoic acid, 2,3-dihydroxypropyl ester",408.75,1,CCCCCCCCCCCC(=O)OCC(O)CO,le15,0,0,0,1
"Phosphorodithioic acid, O,O-diethyl S-(2-(ethylthio)ethyl) ester",426.95,1,CCOP(=S)(OCC)SCCSCC,le15,0,0,0,1
"Silane, tris(1,1-dimethylethoxy)ethenyl- (9CI)",388.05,1,CC(C)(C)OC([SiH3])=C(OC(C)(C)C)OC(C)(C)C,le15,1,1,0,0
tetradecylbenzene,433.55,1,CCCCCCCCCCCCCCc1ccccc1,le15,0,0,0,0
"9H-Fluorene-9-carboxylic acid, 2-chloro-9-hydroxy-, methyl ester",484.85,1,COC(=O)C1(O)c2ccccc2-c2ccc(Cl)cc21,le15,0,0,0,1
"Pyridine, 2-(p-chloro-alpha-(2-(dimethylamino)ethyl)benzyl)-",456.15,1,CN(C)CCC(c1ccc(Cl)cc1)c1ccccn1,le15,0,0,0,0
"Acetanilide, 2-bromo-2'-hydroxy-5'-nitro- (8CI)",512.65,1,O=C(CBr)Nc1cc([N+](=O)[O-])ccc1O,le15,0,0,0,0
"Acetophenone, 2-bromo-4'-phenyl- (8CI)",348.25,1,O=C(CBr)c1ccc(-c2ccccc2)cc1,le15,0,0,0,0
"Phosphoric acid, diethyl 4-nitrophenyl ester",435.45,1,CCOP(=O)(OCC)Oc1ccc([N+](=O)[O-])cc1,le15,0,0,0,1
"Phenol, 4-((2,4-dinitrophenyl)amino)-",495.35,1,O=[N+]([O-])c1ccc(Nc2ccc(O)cc2)c([N+](=O)[O-])c1,le15,0,0,0,0
"8H-Benzo(g)-1,3-benzodioxolo(6,5,4-de)quinolin-8-one (9CI)",548.15,1,O=C1c2ccccc2-c2c3c(cc4ccnc1c24)OCO3,le15,0,0,0,0
"Phosphonothioic acid, methyl-, O-(4-nitrophenyl) O-propyl ester",445.75,1,CCCOP(C)(=S)Oc1ccc([N+](=O)[O-])cc1,le15,0,0,0,1
"2H-1-Benzothiopyran-7-sulfonamide, 3,4-dihydro-6-methyl-, 1,1-dioxide",559.05,1,Cc1cc2c(cc1S(N)(=O)=O)S(=O)(=O)CCC2,le15,0,0,0,0
N-(1-piperidin-1-ylpropan-2-yl)-N-pyridin-2-ylpropanamide,474.95,1,CCC(=O)N(c1ccccn1)C(C)CN1CCCCC1,le15,0,0,0,0
"1,3,5-Triazin-2-amine, 4,6-dichloro-N-(2-chlorophenyl)- (9CI)",505.35,1,Clc1nc(Cl)nc(Nc2ccccc2Cl)n1,le15,0,0,0,0
"Succinic acid, 2,3-dibromo- (8CI)",385.65,1,O=C(O)C(Br)C(Br)C(=O)O,le15,0,0,0,1
"Benzene, 1,2,3,4-tetrachloro-5,6-dimethoxy-",395.25,1,COc1c(Cl)c(Cl)c(Cl)c(Cl)c1OC,le15,0,0,0,0
"Benzimidazole, 5,6-dinitro-2-(trifluoromethyl)-",512.95,1,O=[N+]([O-])c1cc2nc(C(F)(F)F)[nH]c2cc1[N+](=O)[O-],le15,0,0,0,0
"1,2-dibromo-1-chloro-1,2,2-trifluoroethane",282.25,1,FC(F)(Br)C(F)(Cl)Br,le15,0,0,0,0
"Benzene, 1,1'-thiobis(4-nitro-",521.75,1,O=[N+]([O-])c1ccc(Sc2ccc([N+](=O)[O-])cc2)cc1,le15,0,0,0,0
"1H-Pyrrole-2,5-dione, 1,1'-(1,6-hexanediyl)bis- (9CI)",491.25,1,O=C1C=CC(=O)N1CCCCCCN1C(=O)C=CC1=O,le15,0,0,0,0
"Dibenzo(def,mno)chrysene",520.35,1,c1cc2ccc3cc4cccc5ccc6cc(c1)c2c3c6c54,le15,0,0,0,0
"Indeno(1,2,3-cd)pyrene",520.35,1,c1ccc2c(c1)-c1ccc3ccc4cccc5cc-2c1c3c45,le15,0,0,0,0
Benzo(def)cyclopenta(hi)chrysene,538.45,1,c1cc2ccc3c4cccc5ccc(c6ccc(c1)c2c36)c54,le15,0,0,0,0
"Phosphorothioic acid, O,O-diethyl S-((ethylsulfonyl)methyl) ester",462.85,1,CCOP(=O)(OCC)SCS(=O)(=O)CC,le15,0,0,0,1
"Benzeneacetic acid, alpha-hydroxy-, 3,3,5-trimethylcyclohexyl ester",423.25,1,CC1CC(OC(=O)C(O)c2ccccc2)CC(C)(C)C1,le15,0,0,0,1
"4-Decen-3-one, 1-(4-hydroxy-3-methoxyphenyl)-",423.45,1,CCCCCC=CC(=O)CCc1ccc(O)c(OC)c1,le15,0,0,0,0
"Silane, hydroxytriphenyl-",461.95,1,O[Si](c1ccccc1)(c1ccccc1)c1ccccc1,le15,1,1,0,0
"Silane, triethoxyoctyl-",374.45,1,CCOC(CCCCCCC[SiH3])(OCC)OCC,le15,1,1,0,0
"Benzonitrile, 3,5-dibromo-4-hydroxy-",387.55,1,N#Cc1cc(Br)c(O)c(Br)c1,le15,0,0,0,0
"Acetic acid, (2,4-dichlorophenoxy)-, 2-methylpropyl ester (9CI)",402.05,1,CC(C)COC(=O)COc1ccc(Cl)cc1Cl,le15,0,0,0,1
"Acetic acid, (2,4-dichlorophenoxy)-, butyl ester",405.15,1,CCCCOC(=O)COc1ccc(Cl)cc1Cl,le15,0,0,0,1
"Phosphorothioic acid, O,O-dimethyl O-(3-methyl-4-nitrophenyl) ester",438.35,1,COP(=S)(OC)Oc1ccc([N+](=O)[O-])c(C)c1,le15,0,0,0,1
"Acetamide, N-9H-fluoren-2-yl-2,2,2-trifluoro- (9CI)",475.15,1,O=C(Nc1ccc2c(c1)Cc1ccccc1-2)C(F)(F)F,le15,0,0,0,0
"Phosphorothioic acid, O-ethyl O-methyl O-(4-nitrophenyl) ester (9CI)",438.05,1,CCOP(=S)(OC)Oc1ccc([N+](=O)[O-])cc1,le15,0,0,0,1
"1H-Purine, 6-((1-methyl-4-nitro-1H-imidazol-5-yl)thio)-",641.65,1,Cn1cnc([N+](=O)[O-])c1Sc1[nH]cnc2ncnc1-2,le15,0,0,0,0
1-bromotetradecane,400.45,1,CCCCCCCCCCCCCCBr,le15,0,0,0,0
"Phenol, 4,4'-(2-pyridinylmethylene)bis- (9CI)",506.45,1,Oc1ccc(C(c2ccc(O)cc2)c2ccccn2)cc1,le15,0,0,0,0
bis[[chloro(dimethyl)silyl]oxy]-dimethylsilane,326.45,1,C[Si](C)(Cl)O[Si](C)(C)O[Si](C)(C)Cl,le15,1,1,0,0
"Phenol, 2,6-bis(1,1-dimethylethyl)-4-methyl-, methylcarbamate (9CI)",429.15,1,CNC(=O)Oc1c(C(C)(C)C)cc(C)cc1C(C)(C)C,le15,0,0,0,0
10-chloro-5H-phenarsazinine,469.85,1,Cl[As]1c2ccccc2Nc2ccccc21,le15,0,1,0,0
"Ethanone, 2-bromo-1-(4-bromophenyl)-",387.25,1,O=C(CBr)c1ccc(Br)cc1,le15,0,0,0,0
"Phthalic acid, bis(2,3-epoxypropyl) ester",446.05,1,O=C(OCC1CO1)c1ccccc1C(=O)OCC1CO1,le15,0,0,0,1
"Glycine, N-(2-(bis(carboxymethyl)amino)ethyl)-N-(2-hydroxyethyl)-",573.15,1,O=C(O)CN(CCO)CCN(CC(=O)O)CC(=O)O,le15,0,0,0,0
"Phosphine oxide, triphenyl-",506.95,1,O=P(c1ccccc1)(c1ccccc1)c1ccccc1,le15,0,0,0,0
"2-Naphthalenol, 1-((2-methoxyphenyl)azo)-",495.35,1,COc1ccccc1N=Nc1c(O)ccc2ccccc12,le15,0,0,0,0
"1H-Indene, 2,3-dihydro-1,1,3,3,5-pentamethyl-4,6-dinitro-",418.45,1,Cc1c([N+](=O)[O-])cc2c(c1[N+](=O)[O-])C(C)(C)CC2(C)C,le15,0,0,0,0
"Threitol, 1,4-dimethanesulfonate, (2S,3S)- (8CI)",594.05,1,CS(=O)(=O)OC[C@H](O)[C@@H](O)COS(C)(=O)=O,le15,0,0,0,0
"1H-Purine-2,6-dione, 3,7-dihydro-3,7-dimethyl-1-(5-oxohexyl)-",548.25,1,CC(=O)CCCCn1c(=O)c2c(ncn2C)n(C)c1=O,le15,0,0,0,0
"Dibenz(a,h)anthracene",537.65,1,c1ccc2c(c1)ccc1cc3c(ccc4ccccc43)cc12,le15,0,0,0,0
Benzo(c)chrysene,537.65,1,c1ccc2c(c1)ccc1c2ccc2ccc3ccccc3c21,le15,0,0,0,0
Benzo(a)chrysene,537.65,1,c1ccc2c(c1)ccc1c2ccc2c3ccccc3ccc21,le15,0,0,0,0
"Dibenz(a,j)anthracene",537.65,1,c1ccc2c(c1)ccc1cc3ccc4ccccc4c3cc12,le15,0,0,0,0
"Benzenesulfonamide, 4-amino-N-(4,6-dimethyl-2-pyrimidinyl)-",545.25,1,Cc1cc(C)nc(NS(=O)(=O)c2ccc(N)cc2)n1,le15,0,0,0,0
"1,2-Benzenedicarboxylic acid, bis(2-methylpropyl) ester",427.05,1,CC(C)COC(=O)c1ccccc1C(=O)OCC(C)C,le15,0,0,0,1
"1,4-Benzenedicarboxylic acid, dibutyl ester",453.35,1,CCCCOC(=O)c1ccc(C(=O)OCCCC)cc1,le15,0,0,0,1
"1,2-Benzenedicarboxylic acid, mono(2-ethylhexyl) ester (9CI)",417.25,1,CCCCC(CC)COC(=O)c1ccccc1C(=O)[O-],le15,0,0,0,1
"1,2-Benzenedicarboxylic acid, dibutyl ester",450.55,1,CCCCOC(=O)c1ccccc1C(=O)OCCCC,le15,0,0,0,1
"Pyridine, 2-(1-(4-methylphenyl)-3-(1-pyrrolidinyl)-1-propenyl)-, (E)-",490.25,1,Cc1ccc(/C(=C\CN2CCCC2)c2ccccn2)cc1,le15,0,0,0,0
"Benzene, 1,1',1''-(chloromethylidyne)tris-",451.05,1,ClC(c1ccccc1)(c1ccccc1)c1ccccc1,le15,0,0,0,0
"1H-Indene-1-carboxylic acid, 6-chloro-5-cyclohexyl-2,3-dihydro- (9CI)",483.65,1,O=C(O)C1CCc2cc(C3CCCCC3)c(Cl)cc21,le15,0,0,0,1
"1,2-dichloro-1,1,2-trifluoro-2-iodoethane",289.05,1,FC(F)(Cl)C(F)(Cl)I,le15,0,0,0,0
"Dibenz(a,j)acridine",513.45,1,c1ccc2c(c1)ccc1nc3ccc4ccccc4c3cc12,le15,0,0,0,0
"Dibenz(c,h)acridine",513.45,1,c1ccc2c(c1)ccc1cc3ccc4ccccc4c3nc12,le15,0,0,0,0
"Dibenz(a,h)acridine",513.45,1,c1ccc2c(c1)ccc1nc3c(ccc4ccccc43)cc12,le15,0,0,0,0
"Salicylaldehyde, 3,5-dibromo- (6CI,7CI,8CI)",384.85,1,O=Cc1cc(Br)cc(Br)c1O,le15,0,0,0,0
"3,5-Dibromo-4-hydroxybenzaldehyde",392.25,1,O=Cc1cc(Br)c(O)c(Br)c1,le15,0,0,0,0
1-iodo-4-phenylbenzene,418.95,1,Ic1ccc(-c2ccccc2)cc1,le15,0,0,0,0
"Benzophenone, 2',5-dichloro-2-methylamino-",499.55,1,CNc1ccc(Cl)cc1C(=O)c1ccccc1Cl,le15,0,0,0,0
"Benzenesulfonamide, 4-amino-N-(3-methoxypyrazinyl)-",522.45,1,COc1nccnc1NS(=O)(=O)c1ccc(N)cc1,le15,0,0,0,0
"2H-1-Benzopyran-2-one, 4-hydroxy-3-(1-phenylpropyl)-",424.95,1,CCC(c1ccccc1)c1c(O)c2ccccc2oc1=O,le15,0,0,0,0
"Benzenesulfonamide, 4-amino-N-(6-methoxy-4-pyrimidinyl)-",537.35,1,COc1cc(NS(=O)(=O)c2ccc(N)cc2)ncn1,le15,0,0,0,0
"Acetamide, N,N'-9H-fluorene-2,7-diylbis- (9CI)",520.05,1,CC(=O)Nc1ccc2c(c1)Cc1cc(NC(C)=O)ccc1-2,le15,0,0,0,0
"4(3H)-Quinazolinone, 3-(p-ethoxyphenyl)-2-methyl-",504.05,1,CCOc1ccc(-n2c(C)nc3ccccc3c2=O)cc1,le15,0,0,0,0
"6-Ethenyl-6-(methoxyethoxy)-2,5,7,10-tetraoxa-6-silaundecane (9CI)",377.95,1,C=C[Si](OCCOC)(OCCOC)OCCOC,le15,1,1,0,0
"5H-Dibenz(b,f)azepine-5-propanamine, 10,11-dihydro-N,N-dimethyl- (9CI)",452.85,1,CN(C)CCCN1c2ccccc2CCc2ccccc21,le15,0,0,0,0
"9,12-Octadecadienoic acid, (9E,12E)-",546.15,1,CCCCC/C=C/C/C=C/CCCCCCCC(=O)O,le15,0,0,0,1
tetradecylcyclohexane,437.85,1,CCCCCCCCCCCCCCC1CCCCC1,le15,0,0,0,0
"Acetaldehyde, tribromo-",338.15,1,O=CC(Br)(Br)Br,le15,0,0,0,0
"1,2,2-tribromopropane",344.85,1,CC(Br)(Br)CBr,le15,0,0,0,0
"1,1,2-tribromopropane",344.95,1,CC(Br)C(Br)Br,le15,0,0,0,0
"Propane, 1,2,3-tribromo-",366.15,1,BrCC(Br)CBr,le15,0,0,0,0
"Phosphonodithioic acid, ethyl-, S-(4-chlorophenyl) O-ethyl ester",441.25,1,CCOP(=S)(CC)Sc1ccc(Cl)cc1,le15,0,0,0,1
"1,4-Dibromo-2-nitrobenzene",388.05,1,O=[N+]([O-])c1cc(Br)ccc1Br,le15,0,0,0,0
"Benzeneacetic acid, 4-chloro-alpha-(4-chlorophenyl)- (9CI)",475.75,1,O=C(O)C(c1ccc(Cl)cc1)c1ccc(Cl)cc1,le15,0,0,0,1
"Anthranilic acid, N-(alpha,alpha,alpha-trifluoro-m-tolyl)-",453.05,1,O=C(O)c1ccccc1Nc1cccc(C(F)(F)F)c1,le15,0,0,0,1
"2H-1,4-Benzodiazepin-2-one, 1,3-dihydro-7-nitro-5-phenyl-",527.55,1,O=C1CN=C(c2ccccc2)c2cc([N+](=O)[O-])ccc2N1,le15,0,0,0,0
"Adenosine, N-methyl- (8CI)(9CI)",619.45,1,CNc1ncnc2c1ncn2[C@@H]1O[C@H](CO)[C@@H](O)[C@H]1O,le15,0,0,0,0
"Benzenamine, 4-methyl-2,6-dinitro-N,N-dipropyl- (9CI)",475.55,1,CCCN(CCC)c1c([N+](=O)[O-])cc(C)cc1[N+](=O)[O-],le15,0,0,0,0
"Benzenamine, N-(1-ethylpropyl)-3,4-dimethyl-2,6-dinitro- (9CI)",481.55,1,CCC(CC)Nc1c([N+](=O)[O-])cc(C)c(C)c1[N+](=O)[O-],le15,0,0,0,0
"4H-Dibenzo(de,g)quinolin-2-ol, 5,6,6a,7-tetrahydro-1-methoxy-6-methyl-",499.95,1,COc1c(O)cc2c3c1-c1ccccc1CC3N(C)CC2,le15,0,0,0,0
"Morpholine, 4-cyclododecyl-2,6-dimethyl-",382.85,1,CC1CN(C2CCCCCCCCCCC2)CC(C)O1,le15,0,0,0,0
"1,1-diiodoethane",345.65,1,CC(I)I,le15,0,0,0,0
"1,2-diiodoethane",374.05,1,ICCI,le15,0,0,0,0
"2-Pentenedioic acid, 3-((dimethoxyphosphinyl)oxy)-, dimethyl ester",439.95,1,COC(=O)C=C(CC(=O)OC)OP(=O)(OC)OC,le15,0,0,0,1
"2-Anthraquinonecarboxaldehyde, 3-hydroxy-1-methoxy-",478.05,1,COc1c(C=O)c(O)cc2c1C(=O)c1ccccc1C2=O,le15,0,0,0,0
"Phthalic acid, bis(2-methoxyethyl) ester (8CI)",404.75,1,COCCOC(=O)c1ccccc1C(=O)OCCOC,le15,0,0,0,1
"9H-Fluorene-9-carboxylic acid, 9-hydroxy-, butyl ester",405.95,1,CCCCOC(=O)C1(O)c2ccccc2-c2ccccc21,le15,0,0,0,1
"Benzoic acid, 3,4,5-trihydroxy-, octyl ester",450.25,1,CCCCCCCCOC(=O)c1cc(O)c(O)c(O)c1,le15,0,0,0,1
"3,6,9,12,15-Pentaoxaheptadecane-1,17-diol",383.15,1,OCCOCCOCCOCCOCCOCCO,le15,0,0,0,0
"Benzenethiol, 2,3,4,5,6-pentachloro-",417.75,1,Sc1c(Cl)c(Cl)c(Cl)c(Cl)c1Cl,le15,0,0,0,0
"Butanedioic acid, dicyclohexyl ester (9CI)",455.35,1,O=C(CCC(=O)OC1CCCCC1)OC1CCCCC1,le15,0,0,0,1
"(1,1'-Biphenyl)-4-ol, 3,5-bis(1,1-dimethylethyl)-",441.05,1,CC(C)(C)c1cc(-c2ccccc2)cc(C(C)(C)C)c1O,le15,0,0,0,0
"1,4-Benzenediamine, N-(1,4-dimethylpentyl)-N'-phenyl-",525.85,1,CC(C)CCC(C)Nc1ccc(Nc2ccccc2)cc1,le15,0,0,0,0
"Ethanol, 2,2,2-tribromo-",372.85,1,OCC(Br)(Br)Br,le15,0,0,0,0
1-bromo-2-iodobenzene,377.95,1,Brc1ccccc1I,le15,0,0,0,0
1-bromo-4-iodobenzene,375.05,1,Brc1ccc(I)cc1,le15,0,0,0,0
1-bromo-3-iodobenzene,378.45,1,Brc1cccc(I)c1,le15,0,0,0,0
"Adenine, N-hydroxy-9-ribofuranosyl-",652.55,1,OC[C@H]1OC(n2cnc3c(NO)ncnc32)[C@H](O)[C@@H]1O,le15,0,0,0,0
"Morphinan-3-ol, 17-(2-propenyl)-",487.35,1,C=CCN1CC[C@]23CCCC[C@H]2[C@H]1Cc1ccc(O)cc13,le15,0,0,0,0
"Phosphoric acid, 2-chloroethyl 2,2-dichloroethenyl ethyl ester",397.65,1,CCOP(=O)(OC=C(Cl)Cl)OCCCl,le15,0,0,0,1
Octadecanamide,480.65,1,CCCCCCCCCCCCCCCCCC(N)=O,le15,0,0,0,0
"Benzene, 2,4-dichloro-1-(4-nitrophenoxy)-",445.05,1,O=[N+]([O-])c1ccc(Oc2ccc(Cl)cc2Cl)cc1,le15,0,0,0,0
"Isoflavone, 5,7-dihydroxy-4'-methoxy- (8CI)",471.35,1,COc1ccc(-c2coc3cc(O)cc(O)c3c2=O)cc1,le15,0,0,0,0
"9,10-Anthracenedione, 1,8-dihydroxy-3-methoxy-6-methyl- (9CI)",488.55,1,COc1cc(O)c2c(c1)C(=O)c1cc(C)cc(O)c1C2=O,le15,0,0,0,0
"9H-Purine-6(1H)-thione, 9-beta-D-ribofuranosyl- (8CI)",659.15,1,OC[C@H]1O[C@@H](n2cnc3c(=S)[nH]cnc32)[C@H](O)[C@@H]1O,le15,0,0,0,0
"7H-Benzimidazo(2,1-a)benz(de)isoquinolin-7-one, 10-methyl-",599.35,1,Cc1ccc2nc3c4cccc5cccc(c(=O)n3c2c1)c54,le15,0,0,0,0
"Acetanilide, 4',4'''-oxybis- (8CI)",562.25,1,CC(=O)Nc1ccc(Oc2ccc(NC(C)=O)cc2)cc1,le15,0,0,0,0
4'-Phenylchalcone,478.65,1,O=C(C=Cc1ccccc1)c1ccc(-c2ccccc2)cc1,le15,0,0,0,0
"1,2-Dihydro-3-methylbenz(j)aceanthrylen- 1-ol",479.95,1,Cc1ccc2cc3c(ccc4ccccc43)c3c2c1CC3O,le15,0,0,0,0
"Benzeneacetamide, N-ethyl-alpha-(hydroxymethyl)-N-(4-pyridinylmethyl)-",524.95,1,CCN(Cc1ccncc1)C(=O)C(CO)c1ccccc1,le15,0,0,0,0
"2-Propenoic acid, 3-phenyl-, 1-ethenyl-1,5-dimethyl-4-hexenyl ester",489.25,1,C=CC(C)(CCC=C(C)C)OC(=O)C=Cc1ccccc1,le15,0,0,0,1
"10H-Phenothiazine-10-propanamine, N,N-dimethyl- (9CI)",476.55,1,CN(C)CCCN1c2ccccc2Sc2ccccc21,le15,0,0,0,0
"Heptadecanoic acid, 16-methyl-",498.75,1,CC(C)CCCCCCCCCCCCCCC(=O)O,le15,0,0,0,1
octadecanoic acid,435.55,1,CCCCCCCCCCCCCCCCCC(=O)O,le15,0,0,0,1
"Myristic acid, butyl ester (8CI)",431.65,1,CCCCCCCCCCCCCC(=O)OCCCC,le15,0,0,0,1
"Urea, tetrabutyl-",405.15,1,CCCCN(CCCC)C(=O)N(CCCC)CCCC,le15,0,0,0,0
"Benzene, hexachloro-",424.25,1,Clc1c(Cl)c(Cl)c(Cl)c(Cl)c1Cl,le15,0,0,0,0
"2H-1,4-Benzodiazepin-2-one, 7-chloro-1,3-dihydro-1-methyl-5-phenyl-",527.75,1,CN1C(=O)CN=C(c2ccccc2)c2cc(Cl)ccc21,le15,0,0,0,0
"1,1,1,2,2,3,3-heptachloropropane",376.05,1,ClC(Cl)C(Cl)(Cl)C(Cl)(Cl)Cl,le15,0,0,0,0
"1,1,1,2,3,3,3-heptachloropropane",372.75,1,ClC(C(Cl)(Cl)Cl)C(Cl)(Cl)Cl,le15,0,0,0,0
"Benzamide, N-9H-fluoren-2-yl- (9CI)",518.65,1,O=C(Nc1ccc2c(c1)Cc1ccccc1-2)c1ccccc1,le15,0,0,0,0
"Morphinan-6-one, 4,5alpha-epoxy-3-hydroxy-17-methyl- (8CI)",514.55,1,CN1CC[C@]23c4c5ccc(O)c4O[C@H]2C(=O)CC[C@H]3[C@H]1C5,le15,0,0,0,0
"Benzoic acid, 4-((dipropylamino)sulfonyl)-",491.85,1,CCCN(CCC)S(=O)(=O)c1ccc(C(=O)O)cc1,le15,0,0,0,1
"Ethanol, 2-chloro-, phosphate (3:1)",505.35,1,O=P(O)(O)O.OCCCl.OCCCl.OCCCl,le15,0,0,0,0
"Dodecanoic acid, 2-thiocyanatoethyl ester (9CI)",465.15,1,CCCCCCCCCCCC(=O)OCCSC#N,le15,0,0,0,1
"Ethanol, 2-(bis(2-ethylhexyl)amino)-",413.05,1,CCCCC(CC)CN(CCO)CC(CC)CCCC,le15,0,0,0,0
"1,3-Isobenzofurandione, 4,5,6,7-tetrachloro-",434.75,1,O=C1OC(=O)c2c(Cl)c(Cl)c(Cl)c(Cl)c21,le15,0,0,0,0
"2,4-Imidazolidinedione, 1,3-dibromo-5,5-dimethyl-",378.25,1,CC1(C)C(=O)N(Br)C(=O)N1Br,le15,0,0,0,0
"1,4-dibromonaphthalene",454.55,1,Brc1ccc(Br)c2ccccc12,le15,0,0,0,0
"9,10-Anthracenedione, 1,4,5,8-tetrahydroxy-2-methyl- (9CI)",591.65,1,Cc1cc(O)c2c(c1O)C(=O)c1c(O)ccc(O)c1C2=O,le15,0,0,0,0
"Anthraquinone, 1,4,5,7-tetrahydroxy-2-methyl- (8CI)",621.75,1,Cc1cc(O)c2c(c1O)C(=O)c1cc(O)cc(O)c1C2=O,le15,0,0,0,0
"9,10-Anthracenedione, 1,3,8-trihydroxy-6-(hydroxymethyl)-",647.55,1,O=C1c2cc(O)cc(O)c2C(=O)c2c(O)cc(CO)cc21,le15,0,0,0,0
"4H-1-Benzopyran-4-one, 3,5,7-trihydroxy-2-(4-hydroxyphenyl)-",499.25,1,O=c1c(O)c(-c2ccc(O)cc2)oc2cc(O)cc(O)c12,le15,0,0,0,0
"Xanthen-9-one, 1,3,7-trimethoxy-",477.55,1,COc1cc(OC)c2c(=O)c3cc(OC)ccc3oc2c1,le15,0,0,0,0
"5,5'-Methylenedianthranilic acid",575.55,1,Nc1ccc(Cc2ccc(N)c(C(=O)O)c2)cc1C(=O)O,le15,0,0,0,1
"Phosphoric acid, dibutyl phenyl ester",442.25,1,CCCCOP(=O)(OCCCC)Oc1ccccc1,le15,0,0,0,1
"Azoxybenzene, 4,4'-diethoxy- (8CI)",493.05,1,CCOc1ccc(N=[N+]([O-])c2ccc(OCC)cc2)cc1,le15,0,0,0,0
bis(2-ethylhexyl) carbonate,404.45,1,CCCCC(CC)COC(=O)OCC(CC)CCCC,le15,0,0,0,0
1-Octadecanethiol,458.15,1,CCCCCCCCCCCCCCCCCCS,le15,0,0,0,0
"Propane, 2,2-difluoro-1,1,1,3,3,3-hexachloro-",352.95,1,FC(F)(C(Cl)(Cl)Cl)C(Cl)(Cl)Cl,le15,0,0,0,0
tribromo(chloro)methane,325.95,1,ClC(Br)(Br)Br,le15,0,0,0,0
4-Bromochalcone,352.75,1,O=C(C=Cc1ccc(Br)cc1)c1ccccc1,le15,0,0,0,0
"2-Propen-1-one, 1-(4-bromophenyl)-3-phenyl-",355.55,1,O=C(C=Cc1ccccc1)c1ccc(Br)cc1,le15,0,0,0,0
"Benzene, 1,1'-sulfonylbis(4-chloro-",484.35,1,O=S(=O)(c1ccc(Cl)cc1)c1ccc(Cl)cc1,le15,0,0,0,0
Bis(2-hydroxy-5-chlorophenyl)sulfide,478.95,1,Oc1ccc(Cl)cc1Sc1cc(Cl)ccc1O,le15,0,0,0,0
"Benzenamine, N-methyl-N,2,4,6-tetranitro-",531.55,1,CN(c1c([N+](=O)[O-])cc([N+](=O)[O-])cc1[N+](=O)[O-])[N+](=O)[O-],le15,0,0,0,0
"2,2,3-trichloro-1,1,1,3,4,4,4-heptafluorobutane",295.95,1,FC(F)(F)C(F)(Cl)C(Cl)(Cl)C(F)(F)F,le15,0,0,0,0
"Piperidine, 4-(5H-dibenzo(a,d)cyclohepten-5-ylidene)-1-methyl-",467.65,1,CN1CCC(=C2c3ccccc3C=Cc3ccccc32)CC1,le15,0,0,0,0
"N,N-dibenzyl-1-phenylmethanamine",476.15,1,c1ccc(CN(Cc2ccccc2)Cc2ccccc2)cc1,le15,0,0,0,0
Tribenzylamine,476.0,1,c1ccc(CN(Cc2ccccc2)Cc2ccccc2)cc1,le15,0,0,0,0
"7,12-Dihydroxymethylbenz(a)anthracene",556.65,1,OCc1c2ccccc2c(CO)c2c1ccc1ccccc12,le15,0,0,0,0