compound,flashpoint,pure substance,smiles,source,is_silicon,is_metallic,is_tin,is_acid
"ethenyl 2,2-dimethylpropanoate",282.0,1,C=COC(=O)C(C)(C)C,Saldana11,0,0,0,0
ethenyl ethanoate,265.0,1,CC(=O)OC=C,Saldana11,0,0,0,0
ethenyl methanoate,256.0,1,C=COC=O,Saldana11,0,0,0,0
ethenyl propanoate,274.0,1,CCC(=O)OC=C,Saldana11,0,0,0,0
"ethyl (2E,4E)-hexa-2,4-dienoate",342.0,1,CCOC(=O)/C=C/C=C/C,Saldana11,0,0,0,0
"ethyl (2E,4Z)-deca-2,4-dienoate",386.0,1,CCCCC/C=C\C=C\C(=O)OCC,Saldana11,0,0,0,0
ethyl (2E)-but-2-enoate,275.0,1,CCOC(=O)/C=C/C,Saldana11,0,0,0,0
ethyl (2E)-dec-2-enoate,364.0,1,CCCCCCC/C=C/C(=O)OCC,Saldana11,0,0,0,0
ethyl (2E)-hex-3-enoate,332.0,1,CC/C=C/CC(=O)OCC,Saldana11,0,0,0,0
ethyl (2E)-oct-2-enoate,371.0,1,CCCCC/C=C/C(=O)OCC,Saldana11,0,0,0,0
ethyl (2E)-oct-4-enoate,352.0,1,CCC/C=C/CCC(=O)OCC,Saldana11,0,0,0,0
ethyl (9Z)-octadec-9-enoate,365.0,1,CCCCCCCC/C=C\CCCCCCCC(=O)OCC,Saldana11,0,0,0,0
ethyl 2-hydroxypropanoate,319.0,1,CCOC(=O)C(C)O,Saldana11,0,0,0,0
ethyl 2-methylprop-2-enoate,293.0,1,CCOC(=O)C(=C)C,Saldana11,0,0,0,0
"ethyl buta-2,3-dienoate",320.0,1,CCOC(=O)C=C=C,Saldana11,0,0,0,0
ethyl butanoate,297.0,1,CCCC(=O)OCC,Saldana11,0,0,0,0
ethyl decanoate,375.0,1,CCCCCCCCCC(=O)OCC,Saldana11,0,0,0,0
ethyl dodecanoate,386.0,1,CCCCCCCCCCCC(=O)OCC,Saldana11,0,0,0,0
ethyl eicosanoate,444.0,1,CCCCCCCCCCCCCCCCCCCC(=O)OCC,Saldana11,0,0,0,0
ethyl ethanoate,269.0,1,CCOC(=O)C,Saldana11,0,0,0,0
ethyl hept-6-enoate,352.0,1,C=CCCCCC(=O)OCC,Saldana11,0,0,0,0
ethyl heptadecanoate,428.0,1,CCCCCCCCCCCCCCCCC(=O)OCC,Saldana11,0,0,0,0
ethyl heptanoate,347.0,1,CCCCCCC(=O)OCC,Saldana11,0,0,0,0
ethyl hexadecanoate,386.0,1,CCCCCCCCCCCCCCCC(=O)OCC,Saldana11,0,0,0,0
ethyl hexanoate,326.0,1,CCCCCC(=O)OCC,Saldana11,0,0,0,0
ethyl isobutanoate,287.0,1,CCOC(=O)C(C)C,Saldana11,0,0,0,0
ethyl isopentanoate,298.0,1,CCOC(=O)CC(C)C,Saldana11,0,0,0,0
ethyl methanoate,253.0,1,CCOC=O,Saldana11,0,0,0,0
ethyl nonanoate,367.0,1,CCCCCCCCC(=O)OCC,Saldana11,0,0,0,0
ethyl octadecanoate,441.0,1,CCCCCCCCCCCCCCCCCC(=O)OCC,Saldana11,0,0,0,0
ethyl octanoate,354.0,1,CCCCCCCC(=O)OCC,Saldana11,0,0,0,0
ethyl pentanoate,307.0,1,CCCCC(=O)OCC,Saldana11,0,0,0,0
ethyl prop-2-enoate,282.0,1,CCOC(=O)C=C,Saldana11,0,0,0,0
ethyl propanoate,285.0,1,CCOC(=O)CC,Saldana11,0,0,0,0
ethyl tetradecanoate,386.0,1,CCCCCCCCCCCCCC(=O)OCC,Saldana11,0,0,0,0
ethyl undec-10-enoate,386.0,1,C=CCCCCCCCCC(=O)OCC,Saldana11,0,0,0,0
ethyl undecanoate,386.0,1,CCCCCCCCCCC(=O)OCC,Saldana11,0,0,0,0
ethylene glycol diethanoate,361.0,1,CC(=O)OCCOC(=O)C,Saldana11,0,0,0,0
ethylene glycol diprop-2-enoate,373.0,1,C=CC(=O)OCCOC(=O)C=C,Saldana11,0,0,0,0
heptyl ethanoate,349.0,1,CCCCCCCOC(=O)C,Saldana11,0,0,0,0
hexyl ethanoate,310.0,1,CCCCCCOC(=O)C,Saldana11,0,0,0,0
hexyl methanoate,330.0,1,CCCCCCOC=O,Saldana11,0,0,0,0
isobutyl 2-methylpropanoate,311.0,1,CC(C)COC(=O)C(C)C,Saldana11,0,0,0,0
isobutyl 2-methylpropenoate,314.0,1,CC(C)COC(=O)C(=C)C,Saldana11,0,0,0,0
isobutyl butanoate,330.0,1,CCCC(=O)OCC(C)C,Saldana11,0,0,0,0
isobutyl ethanoate,291.0,1,CC(C)COC(=O)C,Saldana11,0,0,0,0
isobutyl methanoate,302.0,1,O=COCC(C)C,Saldana11,0,0,0,0
isobutyl prop-2-enoate,304.0,1,C=CC(=O)OCC(C)C,Saldana11,0,0,0,0
isobutyl propanoate,320.0,1,CCC(=O)OCC(C)C,Saldana11,0,0,0,0
isopentyl butanoate,331.0,1,CCCC(=O)OCCC(C)C,Saldana11,0,0,0,0
isopentyl dodecanoate,386.0,1,CCCCCCCCCCCC(=O)OCCC(C)C,Saldana11,0,0,0,0
isopentyl ethanoate,298.0,1,CC(C)CCOC(=O)C,Saldana11,0,0,0,0
isopentyl hexanoate,358.0,1,CCCCCC(=O)OCCC(C)C,Saldana11,0,0,0,0
isopentyl isopentanoate,345.0,1,CC(C)CCOC(=O)CC(C)C,Saldana11,0,0,0,0
isopentyl methanoate,314.0,1,O=COCCC(C)C,Saldana11,0,0,0,0
isopentyl propanoate,321.0,1,CCC(=O)OCCC(C)C,Saldana11,0,0,0,0
isopropyl ethanoate,275.0,1,CC(C)OC(=O)C,Saldana11,0,0,0,0
methyl (11E)-octadec-11-enoate,335.0,1,CCCCCC/C=C/CCCCCCCCCC(=O)OC,Saldana11,0,0,0,0
methyl (11Z)-eicos-11-enoate,386.0,1,CCCCCCCC/C=C\CCCCCCCCCC(=O)OC,Saldana11,0,0,0,0
methyl (11Z)-octadec-11-enoate,335.0,1,CCCCCC/C=C\CCCCCCCCCC(=O)OC,Saldana11,0,0,0,0
methyl (13Z)-docos-13-enoate,306.0,1,CCCCCCCC/C=C\CCCCCCCCCCCC(=O)OC,Saldana11,0,0,0,0
methyl (2E)-non-2-enoate,364.0,1,CCCCCC/C=C/C(=O)OC,Saldana11,0,0,0,0
methyl (2E)-oct-2-enoate,356.0,1,CCCCC/C=C/C(=O)OC,Saldana11,0,0,0,0
"methyl (2E)-penta-2,4-dienoate",310.0,1,COC(=O)/C=C/C=C,Saldana11,0,0,0,0
"methyl (2Z)-penta-2,4-dienoate",310.0,1,COC(=O)/C=C\C=C,Saldana11,0,0,0,0
methyl (3E)-hex-3-enoate,319.0,1,CC/C=C/CC(=O)OC,Saldana11,0,0,0,0
methyl (3E)-non-3-enoate,361.0,1,CCCCC/C=C/CC(=O)OC,Saldana11,0,0,0,0
methyl (3E)-pent-3-enoate,297.0,1,C/C=C/CC(=O)OC,Saldana11,0,0,0,0
methyl (3Z)-non-3-enoate,361.0,1,CCCCC/C=C\CC(=O)OC,Saldana11,0,0,0,0
"methyl (4Z,7Z,10Z,13Z,16Z,19Z)-docosa-4,7,10,13,16,19-hexaenoate",366.0,1,C/C=C\C/C=C\C/C=C\C/C=C\C/C=C\C/C=C\CCCC(=O)OC,Saldana11,0,0,0,0
"methyl (5Z,8Z,11Z,14Z,17Z)-eicosa-5,8,11,14,17-pentaenoate",377.0,1,CC/C=C\C/C=C\C/C=C\C/C=C\C/C=C\CCCC(=O)OC,Saldana11,0,0,0,0
"methyl (6E,9E,12E)-octadeca-6,9,12-trienoate",335.0,1,CCCCC/C=C/C/C=C/C/C=C/CCCCC(=O)OC,Saldana11,0,0,0,0
"methyl (6E,9E,12Z)-octadeca-6,9,12-trienoate",335.0,1,CCCCC/C=C\C/C=C/C/C=C/CCCCC(=O)OC,Saldana11,0,0,0,0
"methyl (6E,9Z,12E)-octadeca-6,9,12-trienoate",335.0,1,CCCCC/C=C/C/C=C\C/C=C/CCCCC(=O)OC,Saldana11,0,0,0,0
"methyl (6E,9Z,12Z)-octadeca-6,9,12-trienoate",335.0,1,CCCCC/C=C\C/C=C\C/C=C/CCCCC(=O)OC,Saldana11,0,0,0,0
"methyl (6Z,9E,12E)-octadeca-6,9,12-trienoate",335.0,1,CCCCC/C=C/C/C=C/C/C=C\CCCCC(=O)OC,Saldana11,0,0,0,0
"methyl (6Z,9E,12Z)-octadeca-6,9,12-trienoate",335.0,1,CCCCC/C=C\C/C=C/C/C=C\CCCCC(=O)OC,Saldana11,0,0,0,0
"methyl (6Z,9Z,12E)-octadeca-6,9,12-trienoate",335.0,1,CCCCC/C=C/C/C=C\C/C=C\CCCCC(=O)OC,Saldana11,0,0,0,0
"methyl (6Z,9Z,12Z)-octadeca-6,9,12-trienoate",335.0,1,CCCCC/C=C\C/C=C\C/C=C\CCCCC(=O)OC,Saldana11,0,0,0,0
"methyl (9Z,12Z,15Z)-octadeca-9,12,15-trienoate",386.0,1,CC/C=C\C/C=C\C/C=C\CCCCCCCC(=O)OC,Saldana11,0,0,0,0
"methyl (9Z,12Z)-octadeca-9,12-dienoate",386.0,1,CCCCC/C=C\C/C=C\CCCCCCCC(=O)OC,Saldana11,0,0,0,0
methyl (9Z)-hexadec-9-enoate,386.0,1,CCCCCC/C=C\CCCCCCCC(=O)OC,Saldana11,0,0,0,0
methyl (9Z)-octadec-9-enoate,386.0,1,CCCCCCCC/C=C\CCCCCCCC(=O)OC,Saldana11,0,0,0,0
methyl 10-undecenoate,373.0,1,C=CCCCCCCCCC(=O)OC,Saldana11,0,0,0,0
methyl 2-methylprop-2-enoate,284.0,1,COC(=O)C(=C)C,Saldana11,0,0,0,0
methyl 2-methylpropanoate,276.0,1,COC(=O)C(C)C,Saldana11,0,0,0,0
methyl but-3-enoate,293.0,1,COC(=O)CC=C,Saldana11,0,0,0,0
methyl butanoate,287.0,1,CCCC(=O)OC,Saldana11,0,0,0,0
methyl decanoate,367.0,1,CCCCCCCCCC(=O)OC,Saldana11,0,0,0,0
methyl dodecanoate,386.0,1,CCCCCCCCCCCC(=O)OC,Saldana11,0,0,0,0
methyl eicosanoate,386.0,1,CCCCCCCCCCCCCCCCCCCC(=O)OC,Saldana11,0,0,0,0
methyl ethanoate,263.0,1,COC(=O)C,Saldana11,0,0,0,0
methyl heneicosanoate,386.0,1,CCCCCCCCCCCCCCCCCCCCC(=O)OC,Saldana11,0,0,0,0
methyl heptadecanoate,383.0,1,CCCCCCCCCCCCCCCCC(=O)OC,Saldana11,0,0,0,0
methyl heptanoate,325.0,1,CCCCCCC(=O)OC,Saldana11,0,0,0,0
methyl hex-5-enoate,319.0,1,C=CCCCC(=O)OC,Saldana11,0,0,0,0
methyl hexadecanoate,425.0,1,CCCCCCCCCCCCCCCC(=O)OC,Saldana11,0,0,0,0
methyl hexanoate,316.0,1,CCCCCC(=O)OC,Saldana11,0,0,0,0
methyl methanoate,254.0,1,COC=O,Saldana11,0,0,0,0
methyl nonadecanoate,386.0,1,CCCCCCCCCCCCCCCCCCC(=O)OC,Saldana11,0,0,0,0
methyl nonanoate,360.0,1,CCCCCCCCC(=O)OC,Saldana11,0,0,0,0
methyl octadecanoate,388.0,1,CCCCCCCCCCCCCCCCCC(=O)OC,Saldana11,0,0,0,0
methyl octanoate,342.0,1,CCCCCCCC(=O)OC,Saldana11,0,0,0,0
methyl pent-4-enoate,302.0,1,COC(=O)CCC=C,Saldana11,0,0,0,0
methyl pentadecanoate,386.0,1,CCCCCCCCCCCCCCC(=O)OC,Saldana11,0,0,0,0
methyl prop-2-enoate,270.0,1,COC(=O)C=C,Saldana11,0,0,0,0
methyl propanoate,271.0,1,CCC(=O)OC,Saldana11,0,0,0,0
methyl tridecanoate,386.0,1,CCCCCCCCCCCCC(=O)OC,Saldana11,0,0,0,0
n-butyl octadecanoate,433.0,1,CCCCCCCCCCCCCCCCCC(=O)OCCCC,Saldana11,0,0,0,0
n-propyl ethanoate,288.0,1,CCCOC(=O)C,Saldana11,0,0,0,0
n-propyl methanoate,270.0,1,CCCOC=O,Saldana11,0,0,0,0
n-propyl propanoate,292.0,1,CCCOC(=O)CC,Saldana11,0,0,0,0
neopentyl ethanoate,316.0,1,CC(=O)OCC(C)(C)C,Saldana11,0,0,0,0
nonyl ethanoate,372.0,1,CCCCCCCCCOC(=O)C,Saldana11,0,0,0,0
nonyl methanoate,360.0,1,CCCCCCCCCOC=O,Saldana11,0,0,0,0
octyl butanoate,378.0,1,CCCCCCCCOC(=O)CCC,Saldana11,0,0,0,0
octyl ethanoate,359.0,1,CCCCCCCCOC(=O)C,Saldana11,0,0,0,0
octyl methanoate,353.0,1,CCCCCCCCOC=O,Saldana11,0,0,0,0
pentyl butanoate,345.0,1,CCCCCOC(=O)CCC,Saldana11,0,0,0,0
pentyl ethanoate,312.0,1,CCCCCOC(=O)C,Saldana11,0,0,0,0
pentyl methanoate,319.0,1,CCCCCOC=O,Saldana11,0,0,0,0
pentyl propanoate,336.0,1,CCCCCOC(=O)CC,Saldana11,0,0,0,0
propyl 2-methylprop-2-enoate,322.0,1,CCCOC(=O)C(=C)C,Saldana11,0,0,0,0
propyl prop-2-enoate,311.0,1,CCCOC(=O)C=C,Saldana11,0,0,0,0
sec-butyl ethanoate,255.0,1,CCC(C)OC(=O)C,Saldana11,0,0,0,0
sec-butyl methanoate,299.0,1,CC(CC)OC=O,Saldana11,0,0,0,0
tert-butyl 2-methylprop-2-enoate,300.0,1,CC(=C)C(=O)OC(C)(C)C,Saldana11,0,0,0,0
tert-butyl butanoate,320.0,1,CCCC(=O)OC(C)(C)C,Saldana11,0,0,0,0
tert-butyl ethanoate,287.0,1,CC(=O)OC(C)(C)C,Saldana11,0,0,0,0
tert-butyl methanoate,264.0,1,O=COC(C)(C)C,Saldana11,0,0,0,0
tetradecyl methanoate,433.0,1,CCCCCCCCCCCCCCOC=O,Saldana11,0,0,0,0
undecyl butanoate,421.0,1,CCCCCCCCCCCOC(=O)CCC,Saldana11,0,0,0,0
undecyl ethanoate,398.0,1,CCCCCCCCCCCOC(=O)C,Saldana11,0,0,0,0
undecyl methanoate,385.0,1,CCCCCCCCCCCOC=O,Saldana11,0,0,0,0
undecyl propanoate,410.0,1,CCCCCCCCCCCOC(=O)CC,Saldana11,0,0,0,0
1-methyl-4-(prop-1-en-2-yl)cyclohex-1-ene,318.0,1,CC1=CCC(CC1)C(=C)C,Saldana11,0,0,0,0
"1-methyl-4-(propan-2-yl)cyclohexa-1,3-diene",319.0,1,CC1=CC=C(CC1)C(C)C,Saldana11,0,0,0,0
"1-methyl-4-(propan-2-yl)cyclohexa-1,4-diene",324.0,1,CC1=CCC(=CC1)C(C)C,Saldana11,0,0,0,0
"1-trans-3,5-trimethylcyclohexane",292.0,1,C[C@H]1C[C@H](C)C[C@H](C)C1,Saldana11,0,0,0,0
"1,1-diethylcyclohexane",322.0,1,CCC1(CC)CCCCC1,Saldana11,0,0,0,0
"1,1-dimethylcyclohexane",280.0,1,CC1(C)CCCCC1,Saldana11,0,0,0,0
"1,1-dimethylcyclopentane",257.0,1,CC1(C)CCCC1,Saldana11,0,0,0,0
"1,3-dimethyladamantane",325.0,1,CC12CC3CC(C1)CC(C)(C3)C2,Saldana11,0,0,0,0
"2-methyl-5-propan-2-ylcyclohexa-1,3-diene",322.0,1,CC1=CCC(C=C1)C(C)C,Saldana11,0,0,0,0
2-norbornene,258.0,1,C1CC2C=CC1C2,Saldana11,0,0,0,0
3-methylidene-6-(propan-2-yl)cyclohex-1-ene,322.0,1,C=C1CCC(C=C1)C(C)C,Saldana11,0,0,0,0
"3,3-dimethyl-2-methylidenebicyclo[2.2.1]heptane",309.0,1,C=C1C2CCC(C2)C1(C)C,Saldana11,0,0,0,0
"4,6,6-trimethylbicyclo[3.1.1]hept-3-ene",303.0,1,CC1=CCC2CC1C2(C)C,Saldana11,0,0,0,0
5-ethylidene-2-norbornene,311.0,1,CC=C1CC2CC1C=C2,Saldana11,0,0,0,0
"6,6-dimethyl-4-methylidenebicyclo[3.1.1]heptane",304.0,1,C=C1CCC2CC1C2(C)C,Saldana11,0,0,0,0
bicyclohexyl,347.0,1,C1CCC(CC1)C1CCCCC1,Saldana11,0,0,0,0
butylcyclohexane,321.0,1,CCCCC1CCCCC1,Saldana11,0,0,0,0
butylcyclopentane,308.0,1,CCCCC1CCCC1,Saldana11,0,0,0,0
"cis-1,2-dimethylcyclohexane",284.0,1,C[C@@H]1CCCC[C@@H]1C,Saldana11,0,0,0,0
"cis-1,2-dimethylcyclopentane",269.0,1,C[C@@H]1CCC[C@@H]1C,Saldana11,0,0,0,0
"cis-1,3-dimethylcyclohexane",279.0,1,C[C@@H]1CCC[C@H](C)C1,Saldana11,0,0,0,0
"cis-1,4-dimethylcyclohexane",279.0,1,C[C@H]1CC[C@@H](C)CC1,Saldana11,0,0,0,0
cis-decalin,323.0,1,C1CC[C@@H]2CCCC[C@@H]2C1,Saldana11,0,0,0,0
cyclodecane,338.0,1,C1CCCCCCCCC1,Saldana11,0,0,0,0
"cyclododeca-1,5,9-triene",360.0,1,C1C=CCCC=CCCC=CC1,Saldana11,0,0,0,0
cycloheptane,267.0,1,C1CCCCCC1,Saldana11,0,0,0,0
"cyclohexa-1,3-diene",257.0,1,C1CC=CC=C1,Saldana11,0,0,0,0
"cyclohexa-1,4-diene",262.0,1,C1C=CCC=C1,Saldana11,0,0,0,0
cyclohexane,253.0,1,C1CCCCC1,Saldana11,0,0,0,0
cyclononane,316.0,1,C1CCCCCCCC1,Saldana11,0,0,0,0
"cycloocta-1,3,5,7-tetraene",295.0,1,C1=CC=CC=CC=C1,Saldana11,0,0,0,0
"cycloocta-1,5-diene",308.0,1,C1C=CCCC=CC1,Saldana11,0,0,0,0
cyclooctane,303.0,1,C1CCCCCCC1,Saldana11,0,0,0,0
"cyclopenta-1,3-diene",273.0,1,C1C=CC=C1,Saldana11,0,0,0,0
cyclopentane,236.0,1,C1CCCC1,Saldana11,0,0,0,0
dicyclopentadiene,305.0,1,C1=CC2C3C=CC(C3)C2C1,Saldana11,0,0,0,0
ethenylnorbornene,300.0,1,C=CC1CC2C=CC1C2,Saldana11,0,0,0,0
ethylcyclohexane,295.0,1,CCC1CCCCC1,Saldana11,0,0,0,0
ethylcyclopentane,269.0,1,CCC1CCCC1,Saldana11,0,0,0,0
isopropylcyclohexane,308.0,1,CC(C)C1CCCCC1,Saldana11,0,0,0,0
isopropylcyclopentane,287.0,1,CC(C)C1CCCC1,Saldana11,0,0,0,0
methylcyclohexane,267.0,1,CC1CCCCC1,Saldana11,0,0,0,0
methylcyclopentadiene,322.0,1,CC1=CC=CC1,Saldana11,0,0,0,0
methylcyclopentane,246.0,1,CC1CCCC1,Saldana11,0,0,0,0
methylenecyclopentane,254.0,1,C=C1CCCC1,Saldana11,0,0,0,0
pentylcyclohexane,339.0,1,CCCCCC1CCCCC1,Saldana11,0,0,0,0
prop-2-enylcyclohexane,302.0,1,C=CCC1CCCCC1,Saldana11,0,0,0,0
prop-2-enylcyclopentane,285.0,1,C=CCC1CCCC1,Saldana11,0,0,0,0
propylcyclohexane,304.0,1,CCCC1CCCCC1,Saldana11,0,0,0,0
propylcyclopentane,289.0,1,CCCC1CCCC1,Saldana11,0,0,0,0
terpinolene,311.0,1,CC1=CCC(=C(C)C)CC1,Saldana11,0,0,0,0
tert-butylcyclohexane,315.0,1,CC(C)(C)C1CCCCC1,Saldana11,0,0,0,0
"trans-1,2-dimethylcyclohexane",280.0,1,C[C@@H]1CCCC[C@H]1C,Saldana11,0,0,0,0
"trans-1,3-dimethylcyclohexane",281.0,1,C[C@@H]1CCC[C@@H](C)C1,Saldana11,0,0,0,0
"trans-1,4-dimethylcyclohexane",284.0,1,C[C@@H]1CC[C@@H](C)CC1,Saldana11,0,0,0,0
trans-decalin,325.0,1,C1CC[C@@H]2CCCC[C@H]2C1,Saldana11,0,0,0,0
"(2E,4E)-hexa-2,4-diene",266.0,1,C/C=C/C=C/C,Saldana11,0,0,0,0
(2E)-2-hexene,246.0,1,CCC/C=C/C,Saldana11,0,0,0,0
(2E)-2-pentene,228.0,1,CC/C=C/C,Saldana11,0,0,0,0
(2E)-3-heptene,267.0,1,CCC/C=C/CC,Saldana11,0,0,0,0
(2E)-3-methylpent-2-ene,246.0,1,CC/C(=C/C)/C,Saldana11,0,0,0,0
(2E)-4-methylpent-2-ene,239.0,1,C/C=C/C(C)C,Saldana11,0,0,0,0
(2E)-hept-2-ene,272.0,1,CCCC/C=C/C,Saldana11,0,0,0,0
(2E)-oct-2-ene,294.0,1,CCCCC/C=C/C,Saldana11,0,0,0,0
"(2Z,4E)-hexa-2,4-diene",266.0,1,C/C=C/C=C\C,Saldana11,0,0,0,0
(2Z)-3-methylpent-2-ene,245.0,1,CC/C(=C\C)/C,Saldana11,0,0,0,0
(2Z)-4-methylpent-2-ene,237.0,1,C/C=C\C(C)C,Saldana11,0,0,0,0
(2Z)-but-2-ene,200.0,1,C/C=C\C,Saldana11,0,0,0,0
(2Z)-hept-2-ene,265.0,1,CCCC/C=C\C,Saldana11,0,0,0,0
(2Z)-hex-2-ene,247.0,1,CCC/C=C\C,Saldana11,0,0,0,0
(2Z)-oct-2-ene,294.0,1,CCCCC/C=C\C,Saldana11,0,0,0,0
(2Z)-pent-2-ene,226.0,1,CC/C=C\C,Saldana11,0,0,0,0
"(3E)-1,3-hexadiene",254.0,1,CC/C=C/C=C,Saldana11,0,0,0,0
(3E)-3-hexene,261.0,1,CC/C=C/CC,Saldana11,0,0,0,0
(3E)-3-octene,282.0,1,CCCC/C=C/CC,Saldana11,0,0,0,0
(3Z)-hept-3-ene,264.0,1,CCC/C=C\CC,Saldana11,0,0,0,0
(3Z)-hex-3-ene,245.0,1,CC/C=C\CC,Saldana11,0,0,0,0
(3Z)-oct-3-ene,290.0,1,CCCC/C=C\CC,Saldana11,0,0,0,0
"(4E)-hexa-1,4-diene",248.0,1,C=CC/C=C/C,Saldana11,0,0,0,0
(4E)-oct-4-ene,281.0,1,CCC/C=C/CCC,Saldana11,0,0,0,0
"(4Z)-hexa-1,4-diene",248.0,1,C=CC/C=C\C,Saldana11,0,0,0,0
(4Z)-oct-4-ene,290.0,1,CCC/C=C\CCC,Saldana11,0,0,0,0
1-methylcyclohex-1-ene,272.0,1,CC1=CCCCC1,Saldana11,0,0,0,0
1-methylcyclopent-1-ene,256.0,1,CC1=CCCC1,Saldana11,0,0,0,0
"1,3-dimethylcyclohex-1-ene",285.0,1,CC1CCCC(=C1)C,Saldana11,0,0,0,0
2-ethylbut-1-ene,247.0,1,CCC(=C)CC,Saldana11,0,0,0,0
2-ethylpent-1-ene,263.0,1,CCCC(=C)CC,Saldana11,0,0,0,0
2-methylbut-1-ene,226.0,1,CCC(=C)C,Saldana11,0,0,0,0
2-methylbut-2-ene,228.0,1,CC=C(C)C,Saldana11,0,0,0,0
2-methylhept-1-ene,283.0,1,CCCCCC(=C)C,Saldana11,0,0,0,0
2-methylhept-2-ene,281.0,1,CCCCC=C(C)C,Saldana11,0,0,0,0
2-methylhex-1-ene,267.0,1,CCCCC(=C)C,Saldana11,0,0,0,0
2-methylpent-1-ene,247.0,1,CCCC(=C)C,Saldana11,0,0,0,0
2-methylpent-2-ene,250.0,1,CCC=C(C)C,Saldana11,0,0,0,0
2-methylprop-1-ene,197.0,1,CC(=C)C,Saldana11,0,0,0,0
"2,3-dimethylbut-1-ene",255.0,1,CC(=C)C(C)C,Saldana11,0,0,0,0
"2,3-dimethylbut-2-ene",257.0,1,CC(=C(C)C)C,Saldana11,0,0,0,0
"2,3-dimethylbuta-1,3-diene",251.0,1,CC(=C)C(=C)C,Saldana11,0,0,0,0
"2,3-dimethylhex-1-ene",281.0,1,CCCC(C)C(=C)C,Saldana11,0,0,0,0
"2,3-dimethylpent-1-ene",256.0,1,CCC(C)C(=C)C,Saldana11,0,0,0,0
"2,3,3-trimethylbut-1-ene",256.0,1,CC(=C)C(C)(C)C,Saldana11,0,0,0,0
"2,3,4-trimethylpent-2-ene",275.0,1,CC(C)C(=C(C)C)C,Saldana11,0,0,0,0
"2,4,4-trimethylpent-1-ene",268.0,1,CC(=C)CC(C)(C)C,Saldana11,0,0,0,0
"2,4,4-trimethylpent-2-ene",272.0,1,CC(=CC(C)(C)C)C,Saldana11,0,0,0,0
"2,5-dimethylhexa-1,5-diene",280.0,1,CC(=C)CCC(=C)C,Saldana11,0,0,0,0
"2,5-dimethylhexa-2,4-diene",297.0,1,CC(=CC=C(C)C)C,Saldana11,0,0,0,0
3-ethylhex-1-ene,274.0,1,CCCC(CC)C=C,Saldana11,0,0,0,0
3-ethylpent-1-ene,256.0,1,CCC(CC)C=C,Saldana11,0,0,0,0
3-ethylpent-2-ene,267.0,1,CCC(=CC)CC,Saldana11,0,0,0,0
3-methylbut-1-ene,217.0,1,C=CC(C)C,Saldana11,0,0,0,0
"3-methylbuta-1,2-diene",261.0,1,C=C=C(C)C,Saldana11,0,0,0,0
3-methylcyclohex-1-ene,270.0,1,CC1CCCC=C1,Saldana11,0,0,0,0
3-methylhex-1-ene,255.0,1,CC(CCC)C=C,Saldana11,0,0,0,0
3-methylpent-1-ene,245.0,1,CC(CC)C=C,Saldana11,0,0,0,0
"3-methylpenta-1,3-diene",245.0,1,CC=C(C)C=C,Saldana11,0,0,0,0
"3,3-dimethylbut-1-ene",245.0,1,C=CC(C)(C)C,Saldana11,0,0,0,0
4-ethenylcyclohex-1-ene,289.0,1,C=CC1CCC=CC1,Saldana11,0,0,0,0
4-methylhept-1-ene,275.0,1,CCCC(C)CC=C,Saldana11,0,0,0,0
4-methylhex-1-ene,258.0,1,CC(CC=C)CC,Saldana11,0,0,0,0
4-methylpent-1-ene,242.0,1,C=CCC(C)C,Saldana11,0,0,0,0
"4-methylpenta-1,3-diene",255.0,1,C=CC=C(C)C,Saldana11,0,0,0,0
"4,4-dimethylpent-1-ene",261.0,1,C=CCC(C)(C)C,Saldana11,0,0,0,0
5-methylhex-1-ene,263.0,1,C=CCCC(C)C,Saldana11,0,0,0,0
7-methyloct-1-ene,291.0,1,C=CCCCCC(C)C,Saldana11,0,0,0,0
but-1-ene,193.0,1,CCC=C,Saldana11,0,0,0,0
"buta-1,3-diene",197.0,1,C=CC=C,Saldana11,0,0,0,0
cycloheptene,267.0,1,C1CCC=CCC1,Saldana11,0,0,0,0
cyclohexene,243.0,1,C1CCC=CC1,Saldana11,0,0,0,0
cyclooctene,298.0,1,C1CCCC=CCC1,Saldana11,0,0,0,0
cyclopentene,244.0,1,C1CC=CC1,Saldana11,0,0,0,0
dec-1-ene,311.0,1,CCCCCCCCC=C,Saldana11,0,0,0,0
dodec-1-ene,346.0,1,CCCCCCCCCCC=C,Saldana11,0,0,0,0
hept-1-ene,265.0,1,CCCCCC=C,Saldana11,0,0,0,0
"hepta-1,6-diene",263.0,1,C=CCCCC=C,Saldana11,0,0,0,0
heptadec-1-ene,408.0,1,CCCCCCCCCCCCCCCC=C,Saldana11,0,0,0,0
hex-1-ene,247.0,1,CCCCC=C,Saldana11,0,0,0,0
"hexa-1,5-diene",246.0,1,C=CCCC=C,Saldana11,0,0,0,0
hexadec-1-ene,405.0,1,CCCCCCCCCCCCCCC=C,Saldana11,0,0,0,0
isoprene,219.0,1,C=CC(=C)C,Saldana11,0,0,0,0
non-1-ene,298.0,1,CCCCCCCC=C,Saldana11,0,0,0,0
"nona-1,8-diene",299.0,1,C=CCCCCCC=C,Saldana11,0,0,0,0
oct-1-ene,281.0,1,CCCCCCC=C,Saldana11,0,0,0,0
"octa-1,7-diene",282.0,1,C=CCCCCC=C,Saldana11,0,0,0,0
octadec-1-ene,421.0,1,CCCCCCCCCCCCCCCCC=C,Saldana11,0,0,0,0
pent-1-ene,222.0,1,CCCC=C,Saldana11,0,0,0,0
pentadec-1-ene,385.0,1,CCCCCCCCCCCCCC=C,Saldana11,0,0,0,0
propylene,165.0,1,CC=C,Saldana11,0,0,0,0
tetradec-1-ene,370.0,1,CCCCCCCCCCCCC=C,Saldana11,0,0,0,0
tridec-1-ene,352.0,1,CCCCCCCCCCCC=C,Saldana11,0,0,0,0
undec-1-ene,327.0,1,CCCCCCCCCC=C,Saldana11,0,0,0,0
2-methylheptane,277.0,1,CCCCCC(C)C,Saldana11,0,0,0,0
2-methylhexane,255.0,1,CCCCC(C)C,Saldana11,0,0,0,0
2-methylnonane,314.0,1,CCCCCCCC(C)C,Saldana11,0,0,0,0
2-methyloctane,297.0,1,CCCCCCC(C)C,Saldana11,0,0,0,0
"2,2-dimethylbutane",225.0,1,CCC(C)(C)C,Saldana11,0,0,0,0
"2,2-dimethylheptane",297.0,1,CCCCCC(C)(C)C,Saldana11,0,0,0,0
"2,2-dimethylhexane",269.0,1,CCCCC(C)(C)C,Saldana11,0,0,0,0
"2,2-dimethyloctane",304.0,1,CCCCCCC(C)(C)C,Saldana11,0,0,0,0
"2,2-dimethylpentane",258.0,1,CCCC(C)(C)C,Saldana11,0,0,0,0
"2,2-dimethylpropane",208.0,1,CC(C)(C)C,Saldana11,0,0,0,0
"2,2,3-trimethylbutane",249.0,1,CC(C)C(C)(C)C,Saldana11,0,0,0,0
"2,2,3-trimethylhexane",288.0,1,CCCC(C)C(C)(C)C,Saldana11,0,0,0,0
"2,2,3-trimethylpentane",270.0,1,CCC(C)C(C)(C)C,Saldana11,0,0,0,0
"2,2,3,3-tetramethylbutane",278.0,1,CC(C)(C)C(C)(C)C,Saldana11,0,0,0,0
"2,2,3,3-tetramethylhexane",304.0,1,CCCC(C)(C)C(C)(C)C,Saldana11,0,0,0,0
"2,2,3,3-tetramethylpentane",289.0,1,CCC(C)(C)C(C)(C)C,Saldana11,0,0,0,0
"2,2,3,4-tetramethylhexane",304.0,1,CCC(C)C(C)C(C)(C)C,Saldana11,0,0,0,0
"2,2,3,4-tetramethylpentane",284.0,1,CC(C)C(C)C(C)(C)C,Saldana11,0,0,0,0
"2,2,4-trimethylhexane",288.0,1,CCC(C)CC(C)(C)C,Saldana11,0,0,0,0
"2,2,4-trimethylpentane",261.0,1,CC(C)CC(C)(C)C,Saldana11,0,0,0,0
"2,2,4,4-tetramethylhexane",304.0,1,CCC(C)(C)CC(C)(C)C,Saldana11,0,0,0,0
"2,2,4,4-tetramethylpentane",276.0,1,CC(C)(C)CC(C)(C)C,Saldana11,0,0,0,0
"2,2,4,4,6,8,8-heptamethylnonane",368.0,1,CC(CC(C)(C)C)CC(C)(C)CC(C)(C)C,Saldana11,0,0,0,0
"2,2,5-trimethylhexane",286.0,1,CC(C)CCC(C)(C)C,Saldana11,0,0,0,0
"2,2,5,5-tetramethylhexane",289.0,1,CC(C)(C)CCC(C)(C)C,Saldana11,0,0,0,0