compound,flashpoint,pure substance,smiles,source,is_silicon,is_metallic,is_tin,is_acid
"Cyclohexanone, 5-methyl-2-(1-methylethyl)-, (2R,5S)-rel-",342.15,1,CC(C)[C@H]1CC[C@H](C)CC1=O,le15,0,0,0,0
"2,6-Octadien-1-ol, 3,7-dimethyl-, (2E)-",349.81699999999995,1,CC(C)=CCC/C(C)=C/CO,le15,0,0,0,0
p-Menth-8-en-1-ol(8CI),360.65,1,C=C(C)C1CCC(C)(O)CC1,le15,0,0,0,0
"7-Oxabicyclo(2.2.1)heptane, 1-methyl-4-(1-methylethyl)-",320.95,1,CC(C)C12CCC(C)(CC1)O2,le15,0,0,0,0
"2-Oxabicyclo(2.2.2)octane, 1,3,3-trimethyl-",322.15,1,CC12CCC(CC1)C(C)(C)O2,le15,0,0,0,0
"7-Octen-2-ol, 2-methyl-6-methylene-",357.95,1,C=CC(=C)CCCC(C)(C)O,le15,0,0,0,0
"(3R)-3,7-dimethyloct-6-enal",348.75,1,CC(C)=CCC[C@@H](C)CC=O,le15,0,0,0,0
"(2,6,6-trimethylcyclohex-2-en-1-yl)methanol",354.85,1,CC1=CCCC(C)(C)C1CO,le15,0,0,0,0
2-(4-methylcyclohex-3-en-1-yl)propan-2-ol,362.55,1,CC1=CCC(C(C)(C)O)CC1,le15,0,0,0,0
Citronellal,348.0,1,CC(C)=CCCC(C)CC=O,le15,0,0,0,0
(Z)-undec-2-ene,334.35,1,C/C=C\CCCCCCCC,le15,0,0,0,0
pentylcyclohexane,339.25,1,CCCCCC1CCCCC1,le15,0,0,0,0
"Ethane, 1-chloro-1,1,2,2,2-pentafluoro-",343.15,1,FC(F)(F)C(F)(F)Cl,le15,0,0,0,0
Benzeneacetyl chloride,363.15,1,O=C(Cl)Cc1ccccc1,le15,0,0,0,0
"Ethanone, 2-chloro-1-phenyl-",377.95,1,O=C(CCl)c1ccccc1,le15,0,0,0,0
"Benzoyl chloride, 4-methyl-",355.15,1,Cc1ccc(C(=O)Cl)cc1,le15,0,0,0,0
"Benzoyl chloride, 2-methyl-",349.15,1,Cc1ccccc1C(=O)Cl,le15,0,0,0,0
"Benzoyl chloride, 3-methyl-",349.15,1,Cc1cccc(C(=O)Cl)c1,le15,0,0,0,0
"Ethanone, 1-(2-chlorophenyl)-",361.15,1,CC(=O)c1ccccc1Cl,le15,0,0,0,0
3-chloropropylbenzene,360.35,1,ClCCCc1ccccc1,le15,0,0,0,0
"1-(chloromethyl)-2,4-dimethylbenzene",369.15,1,Cc1ccc(CCl)c(C)c1,le15,0,0,0,0
1-chloro-4-propan-2-ylbenzene,587.15,1,CC(C)c1ccc(Cl)cc1,le15,0,0,0,0
"2-chloro-1,3,5-trimethylbenzene",349.95,1,Cc1cc(C)c(Cl)c(C)c1,le15,0,0,0,0
1-chloro-2-propan-2-ylbenzene,344.15,1,CC(C)c1ccccc1Cl,le15,0,0,0,0
butanedioyl dichloride,349.85,1,O=C(Cl)CCC(=O)Cl,le15,0,0,0,0
1-bromo-4-fluorobutane,306.45,1,FCCCCBr,le15,0,0,0,0
"Oxetane, 3,3-bis(chloromethyl)-",388.95,1,ClCC1(CCl)COC1,le15,0,0,0,0
"1,2-dichlorohexane",329.75,1,CCCCC(Cl)CCl,le15,0,0,0,0
"1,6-dichlorohexane",347.05,1,ClCCCCCCCl,le15,0,0,0,0
"4-Pyridinecarboxylic acid, 1,2-dihydro-6-hydroxy-2-oxo-",454.05,1,O=C(O)c1cc(O)[nH]c(=O)c1,le15,0,0,0,1
"1,3-Benzenediol, 2-nitro-",384.55,1,O=[N+]([O-])c1c(O)cccc1O,le15,0,0,0,0
4-Nitropyrocatechol,441.95,1,O=[N+]([O-])c1ccc(O)c(O)c1,le15,0,0,0,0
4-fluoro-1-methyl-2-nitrobenzene,372.05,1,Cc1ccc(F)cc1[N+](=O)[O-],le15,0,0,0,0
L-Histidine,555.15,1,N[C@@H](Cc1c[nH]cn1)C(=O)O,le15,0,0,0,0
"Pyridine, 4-phenyl-",384.25,1,c1ccc(-c2ccncc2)cc1,le15,0,0,0,0
"Pyridine, 2-phenyl-",386.45,1,c1ccc(-c2ccccn2)cc1,le15,0,0,0,0
"Pyridine, 3-phenyl-",392.44699999999995,1,c1ccc(-c2cccnc2)cc1,le15,0,0,0,0
"3-Pyridinecarboxylic acid, 1,2,5,6-tetrahydro-1-methyl-, methyl ester",354.25,1,COC(=O)C1=CCCN(C)C1,le15,0,0,0,1
"1H-Pyrrolizine-7-methanol, 2,3,5,7a-tetrahydro-1-hydroxy-, (1R-trans)-",434.55,1,OCC1=CCN2CC[C@@H](O)[C@@H]12,le15,0,0,0,0
"4-Pentenamide, 2,2-diethyl-",389.35,1,C=CCC(CC)(CC)C(N)=O,le15,0,0,0,0
"4-Piperidinone, 2,2,6,6-tetramethyl-",346.35,1,CC1(C)CC(=O)CC(C)(C)N1,le15,0,0,0,0
"Cyclohexanamine, N-butyl-",345.25,1,CCCCNC1CCCCC1,le15,0,0,0,0
1-pentylpiperidine,351.45,1,CCCCCN1CCCCC1,le15,0,0,0,0
"1,2,2,6,6-pentamethylpiperidine",323.15,1,CN1C(C)(C)CCCC1(C)C,le15,0,0,0,0
"Benzamide, o-chloro- (8CI)",393.25,1,NC(=O)c1ccccc1Cl,le15,0,0,0,0
"Benzamide, p-chloro- (6CI,7CI,8CI)",402.45,1,NC(=O)c1ccc(Cl)cc1,le15,0,0,0,0
"Formamide, N-(4-chlorophenyl)- (9CI)",417.35,1,O=CNc1ccc(Cl)cc1,le15,0,0,0,0
4-Chlorobenzeneethanamine,379.15,1,NCCc1ccc(Cl)cc1,le15,0,0,0,0
"2-chloro-N,N-dimethylaniline",347.55,1,CN(C)c1ccccc1Cl,le15,0,0,0,0
"Ethanamine, 2-chloro-N-(2-chloroethyl)-N-methyl-",293.65,1,CN(CCCl)CCCl,le15,0,0,0,0
"S-TRIAZINE-2,4,6-TRICARBONITRILE",414.55,1,N#Cc1nc(C#N)nc(C#N)n1,le15,0,0,0,0
"Benzenamine, 4-fluoro-3-nitro-",364.15,1,Nc1ccc(F)c([N+](=O)[O-])c1,le15,0,0,0,0
"Phosphorothioic acid, O,O,O-trimethyl ester",306.35,1,COP(=S)(OC)OC,le15,0,0,0,1
"Phosphorothioic acid, O,O,S-trimethyl ester",329.15,1,COP(=O)(OC)SC,le15,0,0,0,1
ethyl 2-oxocyclopentane-1-carboxylate,350.15,1,CCOC(=O)C1CCCC1=O,le15,0,0,0,0
3-pyridin-3-ylpyridine,388.75,1,c1cncc(-c2cccnc2)c1,le15,0,0,0,0
"Benzene, (methylsulfonyl)- (9CI)",444.55,1,CS(=O)(=O)c1ccccc1,le15,0,0,0,0
ethyl thiophene-2-carboxylate,359.25,1,CCOC(=O)c1cccs1,le15,0,0,0,0
"1,8-dimethylnaphthalene",388.45,1,Cc1cccc2cccc(C)c12,le15,0,0,0,0
"1,4-dimethylnaphthalene",382.35,1,Cc1ccc(C)c2ccccc12,le15,0,0,0,0
"1,5-dimethylnaphthalene",384.55,1,Cc1cccc2c(C)cccc12,le15,0,0,0,0
"1,2-dimethylnaphthalene",387.15,1,Cc1ccc2ccccc2c1C,le15,0,0,0,0
"1,7-dimethylnaphthalene",381.85,1,Cc1ccc2cccc(C)c2c1,le15,0,0,0,0
"Naphthalene, 1,3-dimethyl-",382.55,1,Cc1cc(C)c2ccccc2c1,le15,0,0,0,0
"Naphthalene, 2,3-dimethyl- (8CI)(9CI)",387.15,1,Cc1cc2ccccc2cc1C,le15,0,0,0,0
"2,7-dimethylnaphthalene",383.65,1,Cc1ccc2ccc(C)cc2c1,le15,0,0,0,0
2-ethylnaphthalene,377.55,1,CCc1ccc2ccccc2c1,le15,0,0,0,0
1-ethylnaphthalene,384.85,1,CCc1cccc2ccccc12,le15,0,0,0,0
"Naphthalene, 1,6-dimethyl- (8CI)(9CI)",383.65,1,Cc1ccc2c(C)cccc2c1,le15,0,0,0,0
"2,6-dimethylnaphthalene",383.65,1,Cc1ccc2cc(C)ccc2c1,le15,0,0,0,0
"2(3H)-Furanone, dihydro-5-pentyl-",371.95,1,CCCCCC1CCC(=O)O1,le15,0,0,0,0
"Hexanoic acid, 2-propenyl ester",347.15,1,C=CCOC(=O)CCCCC,le15,0,0,0,1
3-cyclohexylpropanoic acid,404.65,1,O=C(O)CCC1CCCCC1,le15,0,0,0,1
"2-Propenoic acid, 2-methyl-, 2,2-dimethylpropyl ester",327.05,1,C=C(C)C(=O)OCC(C)(C)C,le15,0,0,0,1
"2-Propenoic acid, hexyl ester",331.45,1,C=CC(=O)OCCCCCC,le15,0,0,0,1
"Methacrylic acid, pentyl ester (8CI)",333.45,1,C=C(C)C(=O)OCCCCC,le15,0,0,0,1
"Cyclohexanecarboxylic acid, ethyl ester",341.65,1,CCOC(=O)C1CCCCC1,le15,0,0,0,1
2-Nonenoic acid,441.45,1,CCCCCCC=CC(=O)O,le15,0,0,0,1
"2-Propenoic acid, 2-ethylbutyl ester",328.85,1,C=CC(=O)OCC(CC)CC,le15,0,0,0,1
cyclohexyl propanoate,340.95,1,CCC(=O)OC1CCCCC1,le15,0,0,0,0
"Urea, (1-methylcyclohexyl)-",373.65,1,CC1(NC(N)=O)CCCCC1,le15,0,0,0,0
"Urea, (1-ethylcyclopentyl)-",372.35,1,CCC1(NC(N)=O)CCCC1,le15,0,0,0,0
"2-Propenamide, N-(3-(dimethylamino)propyl)-",400.95,1,C=CC(=O)NCCCN(C)C,le15,0,0,0,0
"Cyclohexanol, 4-(1,1-dimethylethyl)-",378.15,1,CC(C)(C)C1CCC(O)CC1,le15,0,0,0,0
"Heptane, 3-((ethenyloxy)methyl)- (9CI)",291.75,1,C=COCC(CC)CCCC,le15,0,0,0,0
"6-Octen-1-ol, 3,7-dimethyl-",371.45,1,CC(C)=CCCC(C)CCO,le15,0,0,0,0
"Cyclohexanemethanol, alpha,alpha,4-trimethyl-",362.85,1,CC1CCC(C(C)(C)O)CC1,le15,0,0,0,0
2-Decanone,344.15,1,CCCCCCCCC(C)=O,le15,0,0,0,0
3-Decanone,299.85,1,CCCCCCCC(=O)CC,le15,0,0,0,0
2-methyl-5-propan-2-ylcyclohexan-1-ol,359.85,1,CC(C)C1CCC(C)C(O)C1,le15,0,0,0,0
8-methylnonanal,343.85,1,CC(C)CCCCCCC=O,le15,0,0,0,0
1-methyl-4-propan-2-ylcyclohexan-1-ol,356.55,1,CC(C)C1CCC(C)(O)CC1,le15,0,0,0,0
9decen1ol,392.0,1,C=CCCCCCCCCO,le15,0,0,0,0
Decanal,358.0,1,CCCCCCCCCC=O,le15,0,0,0,0
"Piperidine, 4-amino-2,2,6,6-tetramethyl-",345.15,1,CC1(C)CC(N)CC(C)(C)N1,le15,0,0,0,0
4-methyldecane,322.55,1,CCCCCCC(C)CCC,le15,0,0,0,0
3-methyldecane,323.55,1,CCCCCCCC(C)CC,le15,0,0,0,0
chloro(diethoxy)phosphane,274.25,1,CCOP(Cl)OCC,le15,0,0,0,0
"Benzoic acid, 2-chloro-",393.65,1,O=C(O)c1ccccc1Cl,le15,0,0,0,1
"Benzoic acid, 3-chloro-",397.05,1,O=C(O)c1cccc(Cl)c1,le15,0,0,0,1
"Benzaldehyde, 5-chloro-2-hydroxy-",365.35,1,O=Cc1cc(Cl)ccc1O,le15,0,0,0,0
"Formic acid, chloro-, phenyl ester (8CI)",352.15,1,O=C(Cl)Oc1ccccc1,le15,0,0,0,1
"Benzoic acid, 4-chloro-",511.15,1,O=C(O)c1ccc(Cl)cc1,le15,0,0,0,1
"Phenol, 4-chloro-3,5-dimethyl-",379.05,1,Cc1cc(O)cc(C)c1Cl,le15,0,0,0,0
1-chloro-4-ethoxybenzene,356.85,1,CCOc1ccc(Cl)cc1,le15,0,0,0,0
2-chloroethoxybenzene,373.75,1,ClCCOc1ccccc1,le15,0,0,0,0
"Benzene, 1-(chloromethyl)-4-methoxy- (9CI)",382.55,1,COc1ccc(CCl)cc1,le15,0,0,0,0
1-chloro-3-ethoxybenzene,356.85,1,CCOc1cccc(Cl)c1,le15,0,0,0,0
1-chloro-2-ethoxybenzene,355.45,1,CCOc1ccccc1Cl,le15,0,0,0,0
"Phenol, 2-chloro-4,5-dimethyl- (9CI)",370.25,1,Cc1cc(O)c(Cl)cc1C,le15,0,0,0,0
3-chloropropyl carbonochloridate,347.65,1,O=C(Cl)OCCCCl,le15,0,0,0,0
"ethyl 2,2-dichloroacetate",328.75,1,CCOC(=O)C(Cl)Cl,le15,0,0,0,0
"p-Dioxane, 2,3-dichloro-, trans-",367.05,1,Cl[C@@H]1OCCO[C@H]1Cl,le15,0,0,0,0
5-Fluoro-2-nitrophenol,364.15,1,O=[N+]([O-])c1ccc(F)cc1O,le15,0,0,0,0
"Phenol, 3-fluoro-4-nitro-",422.65,1,O=[N+]([O-])c1ccc(O)cc1F,le15,0,0,0,0
"2,4-Oxazolidinedione, 5-ethyl-3,5-dimethyl-",335.05,1,CCC1(C)OC(=O)N(C)C1=O,le15,0,0,0,0
Benzenesulphonamide,417.75,1,NS(=O)(=O)c1ccccc1,le15,0,0,0,0
"Quinoline, 2,6-dimethyl-",379.65,1,Cc1ccc2nc(C)ccc2c1,le15,0,0,0,0
"2,4-dimethylquinoline",380.75,1,Cc1cc(C)c2ccccc2n1,le15,0,0,0,0
2-ethylquinoline,371.85,1,CCc1ccc2ccccc2n1,le15,0,0,0,0
"2,3-dimethylquinoline",382.85,1,Cc1cc2ccccc2nc1C,le15,0,0,0,0
3-ethylquinoline,381.15,1,CCc1cnc2ccccc2c1,le15,0,0,0,0
1-benzylpyrrole,376.35,1,c1ccc(Cn2cccc2)cc1,le15,0,0,0,0
"1-Naphthylamine, 2-methyl-",430.25,1,Cc1ccc2ccccc2c1N,le15,0,0,0,0
"3,4-dimethylquinoline",391.95,1,Cc1cnc2ccccc2c1C,le15,0,0,0,0
"6,8-dimethylquinoline",386.65,1,Cc1cc(C)c2ncccc2c1,le15,0,0,0,0
"5,8-dimethylquinoline",386.05,1,Cc1ccc(C)c2ncccc12,le15,0,0,0,0
"Cyclohexanecarboxylic acid, 4-(aminomethyl)-, trans-",408.50699999999995,1,NC[C@H]1CC[C@H](C(=O)O)CC1,le15,0,0,0,1
"2-Propenamide, N-(butoxymethyl)-",397.05,1,C=CC(=O)NCOCCCC,le15,0,0,0,0
"2-Propenoic acid, 2-methyl-, 2-(dimethylamino)ethyl ester",343.75,1,C=C(C)C(=O)OCCN(C)C,le15,0,0,0,1
"Hexanamide, 2,3-epoxy-2-ethyl-",418.95,1,CCCC1OC1(CC)C(N)=O,le15,0,0,0,0
"Butanamide, N,N-diethyl-3-oxo-",367.15,1,CCN(CC)C(=O)CC(C)=O,le15,0,0,0,0
"2-Pentanone, 5-(diethylamino)-",338.15,1,CCN(CC)CCCC(C)=O,le15,0,0,0,0
"N,N-diethyl-3-methylbutanamide",351.85,1,CCN(CC)C(=O)CC(C)C,le15,0,0,0,0
"Formamide, N,N-di-n-butyl-",373.15,1,CCCCN(C=O)CCCC,le15,0,0,0,0
"1-Butanamine, 3-methyl-N-(3-methylbutyl)-",319.75,1,CC(C)CCNCCC(C)C,le15,0,0,0,0
"Octylamine, N,N-dimethyl- (8CI)",338.15,1,CCCCCCCCN(C)C,le15,0,0,0,0
1decanamine,359.0,1,CCCCCCCCCCN,le15,0,0,0,0
"1,3-Butadiene, 1,1,2-trichloro-",349.15,1,C=CC(Cl)=C(Cl)Cl,le15,0,0,0,0
2-bromo-2-chloropropane,290.65,1,CC(C)(Cl)Br,le15,0,0,0,0
2-bromo-1-chloropropane,300.65,1,CC(Br)CCl,le15,0,0,0,0
1-bromo-2-chloropropane,300.7,1,CC(Cl)CBr,le15,0,0,0,0
"Propane, 1-bromo-3-chloro-",311.15,1,ClCCCBr,le15,0,0,0,0
"2-Pyridinecarboxylic acid, 6-chloro- (9CI)",422.413,1,O=C(O)c1cccc(Cl)n1,le15,0,0,0,1
4-chloro-2-methoxyaniline,382.05,1,COc1cc(Cl)ccc1N,le15,0,0,0,0
"1,1-dichloro-1-nitropropane",319.05,1,CCC(Cl)(Cl)[N+](=O)[O-],le15,0,0,0,0
3-bromopyridine,324.85,1,Brc1cccnc1,le15,0,0,0,0
"Pyridine, 2-bromo-",327.55,1,Brc1ccccn1,le15,0,0,0,0
"Benzoic acid, 2,6-difluoro-",366.65,1,O=C(O)c1c(F)cccc1F,le15,0,0,0,1
"Styrene, alpha,beta,beta-trifluoro-",305.35,1,FC(F)=C(F)c1ccccc1,le15,0,0,0,0
"Urea, N-(2,5-dioxo-4-imidazolidinyl)-",505.15,1,NC(=O)NC1NC(=O)NC1=O,le15,0,0,0,0
"1,4-Naphthalenedione",414.15,1,O=C1C=CC(=O)c2ccccc21,le15,0,0,0,0
"1,2-Naphthalenedione",390.55,1,O=C1C=Cc2ccccc2C1=O,le15,0,0,0,0
"ethyl 2,4-dioxopentanoate",358.905,1,CCOC(=O)C(=O)CC(C)=O,le15,0,0,0,0
"2-Propene-1,1-diol, diacetate",351.45,1,C=CC(OC(C)=O)OC(C)=O,le15,0,0,0,0
"Butanoic acid, 2-acetyl-3-oxo-, methyl ester (9CI)",355.55,1,COC(=O)C(C(C)=O)C(C)=O,le15,0,0,0,1
"2-Butenedioic acid, 2-methyl-, dimethyl ester, (E)-",364.65,1,COC(=O)/C=C(\C)C(=O)OC,le15,0,0,0,1
"1,3-Cyclopentanedicarboxylic acid",435.05,1,O=C(O)C1CCC(C(=O)O)C1,le15,0,0,0,1
"Pipecolic acid, 1-nitroso-",463.25,1,O=NN1CCCCC1C(=O)O,le15,0,0,0,1
Methyl 1-naphthyl ether,375.45,1,COc1cccc2ccccc12,le15,0,0,0,0
naphthalen-1-ylmethanol,427.15,1,OCc1cccc2ccccc12,le15,0,0,0,0
Methyl 2-naphthyl ether,375.45,1,COc1ccc2ccccc2c1,le15,0,0,0,0
2-methylpropanoyl 2-methylpropanoate,332.55,1,CC(C)C(=O)OC(=O)C(C)C,le15,0,0,0,0
"Butanoic acid, anhydride",355.15,1,CCCC(=O)OC(=O)CCC,le15,0,0,0,1
"1,8-Naphthalenediamine",471.85,1,Nc1cccc2cccc(N)c12,le15,0,0,0,0
3-(1-methylpyrrol-2-yl)pyridine,397.95,1,Cn1cccc1-c1cccnc1,le15,0,0,0,0
"Butanoic acid, 3-oxo-, butyl ester",352.75,1,CCCCOC(=O)CC(C)=O,le15,0,0,0,1
"ethyl 2,2-dimethyl-3-oxobutanoate",386.85,1,CCOC(=O)C(C)(C)C(C)=O,le15,0,0,0,0
ethyl 2-ethyl-3-oxobutanoate,348.85,1,CCOC(=O)C(CC)C(C)=O,le15,0,0,0,0
oxolan-2-ylmethyl propanoate,365.15,1,CCC(=O)OCC1CCCO1,le15,0,0,0,0
"Ethene, 1,1'-(oxybis(2,1-ethanediyloxy))bis-",335.35,1,C=COCCOCCOC=C,le15,0,0,0,0
3-methyl-1-phenylpyrazole,381.15,1,Cc1ccn(-c2ccccc2)n1,le15,0,0,0,0
tert-butyl 3-oxobutanoate,339.65,1,CC(=O)CC(=O)OC(C)(C)C,le15,0,0,0,0
"Naphthalene-1,4-diamine",484.65,1,Nc1ccc(N)c2ccccc12,le15,0,0,0,0
"Hexanoic acid, 3-oxo-, ethyl ester",351.45,1,CCCC(=O)CC(=O)OCC,le15,0,0,0,1
"1H-Pyrazole, 3-methyl-5-phenyl- (9CI)",429.35,1,Cc1cc(-c2ccccc2)[nH]n1,le15,0,0,0,0
2-methylquinolin-4-amine,451.15,1,Cc1cc(N)c2ccccc2n1,le15,0,0,0,0
"Hexanedial, 2-hydroxy-2,5-dimethyl- (9CI)",388.15,1,CC(C=O)CCC(C)(O)C=O,le15,0,0,0,0
ethyl 4-methyl-3-oxopentanoate,317.15,1,CCOC(=O)CC(=O)C(C)C,le15,0,0,0,0
"Oxirane, 2,2'-(oxybis(methylene))bis(2-methyl- (9CI)",343.25,1,CC1(COCC2(C)CO2)CO1,le15,0,0,0,0
propan-2-yl 4-oxopentanoate,357.55,1,CC(=O)CCC(=O)OC(C)C,le15,0,0,0,0
"2,3-Naphthalenediamine",485.45,1,Nc1cc2ccccc2cc1N,le15,0,0,0,0
"1,5-Naphthalenediamine",493.35,1,Nc1cccc2c(N)cccc12,le15,0,0,0,0
"2-Propenoic acid, 2-methyl-, 2-ethoxyethyl ester",344.85,1,C=C(C)C(=O)OCCOCC,le15,0,0,0,1
"Imidazole, 1-benzyl- (8CI)",414.45,1,c1ccc(Cn2ccnc2)cc1,le15,0,0,0,0
ethyl 5-oxohexanoate,342.55,1,CCOC(=O)CCCC(C)=O,le15,0,0,0,0
ButyricAnhydride,360.0,1,CCCC(=O)OC(=O)CCC,le15,0,0,0,0
tertButylAcetoAcetate,333.0,1,CC(=O)CC(=O)OC(C)(C)C,le15,0,0,0,0
ethyl piperazine-1-carboxylate,370.25,1,CCOC(=O)N1CCNCC1,le15,0,0,0,0
cyclohexen-1-ylbenzene,376.45,1,C1=C(c2ccccc2)CCCC1,le15,0,0,0,0
"Benzene, 1,3-bis(1-methylethenyl)-",364.25,1,C=C(C)c1cccc(C(=C)C)c1,le15,0,0,0,0
"Benzene, 3-cyclohexen-1-yl-",359.55,1,C1=C(c2ccccc2)CCCC1,le15,0,0,0,0
"Butanoic acid, 3-methylbutyl ester",330.95,1,CCCC(=O)OCCC(C)C,le15,0,0,0,1
"Heptanoic acid, ethyl ester",339.25,1,CCCCCCC(=O)OCC,le15,0,0,0,1
"Butanoic acid, 3-methyl-, butyl ester",335.95,1,CCCCOC(=O)CC(C)C,le15,0,0,0,1
"Octanoic acid, methyl ester",346.15,1,CCCCCCCC(=O)OC,le15,0,0,0,1
Nonanoic acid,388.05,1,CCCCCCCCC(=O)O,le15,0,0,0,1
"Acetic acid, heptyl ester",341.75,1,CCCCCCCOC(C)=O,le15,0,0,0,1
"Formic acid, octyl ester",350.35,1,CCCCCCCCOC=O,le15,0,0,0,1
"Butanoic acid, pentyl ester",340.95,1,CCCCCOC(=O)CCC,le15,0,0,0,1
"Butanoic acid, 3-methyl-, 2-methylpropyl ester",323.65,1,CC(C)COC(=O)CC(C)C,le15,0,0,0,1
"Pentanoic acid, butyl ester",337.85,1,CCCCOC(=O)CCCC,le15,0,0,0,1
ethyl 4-methylhexanoate,332.55,1,CCOC(=O)CCC(C)CC,le15,0,0,0,0
"Propionic acid, hexyl ester (6CI,7CI,8CI)",338.15,1,CCCCCCOC(=O)CC,le15,0,0,0,1
2-methyloctanoic acid,402.85,1,CCCCCCC(C)C(=O)O,le15,0,0,0,1
2-methylpropyl pentanoate,332.55,1,CCCCC(=O)OCC(C)C,le15,0,0,0,0
propyl hexanoate,324.85,1,CCCCCC(=O)OCCC,le15,0,0,0,0
"1-Butanamine, N-butyl-N-nitroso-",378.45,1,CCCCN(CCCC)N=O,le15,0,0,0,0
"1-Octanol, 3,7-dimethyl-",368.15,1,CC(C)CCCC(C)CCO,le15,0,0,0,0
"3-Octanol, 3,6-dimethyl-",368.15,1,CCC(C)CCC(C)(O)CC,le15,0,0,0,0
"Pentane, 1,1'-oxybis-",330.15,1,CCCCCOCCCCC,le15,0,0,0,0
3-ethyloctan-3-ol,354.25,1,CCCCCC(O)(CC)CC,le15,0,0,0,0
5-methyl-2-propan-2-ylhexan-1-ol,353.05,1,CC(C)CCC(CO)C(C)C,le15,0,0,0,0
Isodecyl alcohol,360.25,1,CC(C)CCCCCCCO,le15,0,0,0,0
Decan-4-ol,355.35,1,CCCCCCC(O)CCC,le15,0,0,0,0
decylalcohol,381.15,1,CCCCCCCCCCO,le15,0,0,0,0
Dipentylether,330.0,1,CCCCCOCCCCC,le15,0,0,0,0
"N,N,N',N'-tetraethylmethanediamine",315.45,1,CCN(CC)CN(CC)CC,le15,0,0,0,0
"1-N,1-N-diethylpentane-1,4-diamine",341.45,1,CCN(CC)CCCC(C)N,le15,0,0,0,0
"Benzoyl chloride, 2-fluoro-",355.15,1,O=C(Cl)c1ccccc1F,le15,0,0,0,0
3-fluorobenzoyl chloride,355.35,1,O=C(Cl)c1cccc(F)c1,le15,0,0,0,0
"Benzaldehyde, 2-chloro-6-fluoro-",374.15,1,O=Cc1c(F)cccc1Cl,le15,0,0,0,0
4-chloro-2-methoxyphenol,373.55,1,COc1cc(Cl)ccc1O,le15,0,0,0,0
"Benzene, 1-chloro-4-(methylthio)-",363.15,1,CSc1ccc(Cl)cc1,le15,0,0,0,0
"Ethane, 1,1'-thiobis(2-chloro-",362.55,1,ClCCSCCCl,le15,0,0,0,0
"Benzene, 1,4-difluoro-2-nitro-",363.15,1,O=[N+]([O-])c1cc(F)ccc1F,le15,0,0,0,0
"Benzene, 2,4-difluoro-1-nitro-",363.15,1,O=[N+]([O-])c1ccc(F)cc1F,le15,0,0,0,0
"1,3-difluoro-5-nitrobenzene",347.05,1,O=[N+]([O-])c1cc(F)cc(F)c1,le15,0,0,0,0
1-methylquinolin-2-one,379.95,1,Cn1c(=O)ccc2ccccc21,le15,0,0,0,0
"Quinoline, 4-methoxy-",362.85,1,COc1ccnc2ccccc12,le15,0,0,0,0
8-methoxyquinoline,375.85,1,COc1cccc2cccnc12,le15,0,0,0,0
6-methoxyquinoline,375.85,1,COc1ccc2ncccc2c1,le15,0,0,0,0
2-methylquinolin-8-ol,412.55,1,Cc1ccc2cccc(O)c2n1,le15,0,0,0,0
"1H-1,2,4-Triazole, 1-benzyl-",421.45,1,c1ccc(Cn2cncn2)cc1,le15,0,0,0,0
"Benzenemethanamine, N-methyl-N-2-propynyl-",356.15,1,C#CCN(C)Cc1ccccc1,le15,0,0,0,0
"3H-Indole, 2,3,3-trimethyl-",355.95,1,CC1=Nc2ccccc2C1(C)C,le15,0,0,0,0
"2,3,5-trimethyl-1H-indole",399.75,1,Cc1ccc2[nH]c(C)c(C)c2c1,le15,0,0,0,0
"1,2,3-trimethylindole",399.05,1,Cc1c(C)n(C)c2ccccc12,le15,0,0,0,0
"Thiazole, 4,5-dihydro-2-(2-propenylthio)- (9CI)",369.05,1,C=CCSC1=NCCS1,le15,0,0,0,0
"2-Propenal, 2,3,3-trichloro- (9CI)",344.25,1,O=CC(Cl)=C(Cl)Cl,le15,0,0,0,0
"1-Butene, 2,3,4-trichloro-",364.85,1,C=C(Cl)C(Cl)CCl,le15,0,0,0,0
"2-Butene, 1,2,4-trichloro-",378.65,1,ClCC=C(Cl)CCl,le15,0,0,0,0
"Isocyanic acid, p-phenylene ester (6CI,7CI,8CI)",365.55,1,O=C=Nc1ccc(N=C=O)cc1,le15,0,0,0,1
1-methyl-4-(trifluoromethyl)benzene,300.15,1,Cc1ccc(C(F)(F)F)cc1,le15,0,0,0,0
"2H-1-Benzopyran-2-one, 6-methyl-",397.45,1,Cc1ccc2oc(=O)ccc2c1,le15,0,0,0,0
"1,3-Naphthalenediol",458.65,1,Oc1cc(O)c2ccccc2c1,le15,0,0,0,0
benzenesulfonyl fluoride,360.35,1,O=S(=O)(F)c1ccccc1,le15,0,0,0,0
"1,4-Dihydroxynaphthalene",475.65,1,Oc1ccc(O)c2ccccc12,le15,0,0,0,0
3-methylchromen-2-one,393.75,1,Cc1cc2ccccc2oc1=O,le15,0,0,0,0
"2H-1-Benzopyran-2-one, 7-methyl-",399.05,1,Cc1ccc2ccc(=O)oc2c1,le15,0,0,0,0
"1,6-Dihydroxynaphthalene",466.65,1,Oc1ccc2c(O)cccc2c1,le15,0,0,0,0
Heptanedioic acid,455.05,1,O=C(O)CCCCCC(=O)O,le15,0,0,0,1
2-butylpropanedioic acid,442.55,1,CCCCC(C(=O)O)C(=O)O,le15,0,0,0,1
"1,2-Propanediol, diacetate",357.45,1,CC(=O)OCC(C)OC(C)=O,le15,0,0,0,0
"Glutaric acid, dimethyl ester (8CI)",376.45,1,COC(=O)CCCC(=O)OC,le15,0,0,0,1
dimethyl 2-methylbutanedioate,356.45,1,COC(=O)CC(C)C(=O)OC,le15,0,0,0,0
"Glutaric acid, 3,3-dimethyl- (8CI)",422.85,1,CC(C)(CC(=O)O)CC(=O)O,le15,0,0,0,1
"Propanedioic acid, diethyl ester",373.15,1,CCOC(=O)CC(=O)OCC,le15,0,0,0,1
"3-Buten-2-one, 3-methyl-4-phenyl-",369.45,1,CC(=O)C(C)=Cc1ccccc1,le15,0,0,0,0
cyclobutyl(phenyl)methanone,375.65,1,O=C(c1ccccc1)C1CCC1,le15,0,0,0,0
"Ethanol, 2-butoxy-, acetate",349.25,1,CCCCOCCOC(C)=O,le15,0,0,0,0
3-methylbutyl 2-hydroxypropanoate,347.15,1,CC(C)CCOC(=O)C(C)O,le15,0,0,0,0
naphthalene-2-thiol,407.35,1,Sc1ccc2ccccc2c1,le15,0,0,0,0
naphthalene-1-thiol,407.35,1,Sc1cccc2ccccc12,le15,0,0,0,0
"4,4-dimethyl-2,3-dihydro-1H-naphthalene",354.35,1,CC1(C)CCCc2ccccc21,le15,0,0,0,0
1-propan-2-yl-4-prop-1-en-2-ylbenzene,353.65,1,C=C(C)c1ccc(C(C)C)cc1,le15,0,0,0,0
"2,7-dimethyl-1,2,3,4-tetrahydronaphthalene",371.55,1,Cc1ccc2c(c1)CC(C)CC2,le15,0,0,0,0
"2-ethyl-1,2,3,4-tetrahydronaphthalene",365.95,1,CCC1CCc2ccccc2C1,le15,0,0,0,0
"5-ethyl-1,2,3,4-tetrahydronaphthalene",371.55,1,CCc1cccc2c1CCCC2,le15,0,0,0,0
"6,7-dimethyl-1,2,3,4-tetrahydronaphthalene",374.65,1,Cc1cc2c(cc1C)CCCC2,le15,0,0,0,0
"1,5-dimethyl-1,2,3,4-tetrahydronaphthalene",372.25,1,Cc1cccc2c1CCCC2C,le15,0,0,0,0
"6-ethyl-1,2,3,4-tetrahydronaphthalene",376.35,1,CCc1ccc2c(c1)CCCC2,le15,0,0,0,0
"1,3-Propanediol, 2-butyl-2-ethyl-",410.15,1,CCCCC(CC)(CO)CO,le15,0,0,0,0
"N,N,N',N'-Tetramethyl-2,2'-oxybis(ethylamine)",319.35,1,CN(C)CCOCCN(C)C,le15,0,0,0,0
"Decane, 1-fluoro-",379.25,1,CCCCCCCCCCF,le15,0,0,0,0
"Ether, 2-(butylthio)ethyl vinyl",353.65,1,C=COCCSCCCC,le15,0,0,0,0
"Thiourea, N,N'-bis(1-methylethyl)-",348.05,1,CC(C)NC(=S)NC(C)C,le15,0,0,0,0
ethenyl-diethoxy-methylsilane,290.95,1,C=C[Si](C)(OCC)OCC,le15,1,1,0,0
"Phosphorochloridothioic acid, O,O-dimethyl ester",366.15,1,COP(=S)(Cl)OC,le15,0,0,0,1