compound,flashpoint,pure substance,smiles,source,is_silicon,is_metallic,is_tin,is_acid
heptadecan-1-amine,419.35,1,CCCCCCCCCCCCCCCCCN,le15,0,0,0,0
"Carbamic acid, acetylmethyl-, 2-chloro-4,5-dimethylphenyl ester",453.85,1,CC(=O)CNC(=O)Oc1cc(C)c(C)cc1Cl,le15,0,0,0,1
"9,10-Anthracenedione, 1,2,4-trihydroxy- (9CI)",386.15,1,O=C1c2ccccc2C(=O)c2c(O)c(O)cc(O)c21,le15,0,0,0,0
"9H-Fluorene, 2,7-dinitro- (9CI)",503.05,1,O=[N+]([O-])c1ccc2c(c1)Cc1cc([N+](=O)[O-])ccc1-2,le15,0,0,0,0
"Acetic acid, ((diethoxyphosphinothioyl)oxy)-, ethyl ester (9CI)",395.85,1,CCOC(=O)COP(=S)(OCC)OCC,le15,0,0,0,1
"Benzeneacetic acid, (4-methoxyphenyl)methyl ester",430.35,1,COc1ccc(COC(=O)Cc2ccccc2)cc1,le15,0,0,0,1
"Benz(a)anthracene, 7,12-dimethyl-",327.55,1,Cc1c2ccccc2c(C)c2c1ccc1ccccc12,le15,0,0,0,0
"Benz(a)anthracene, 7-ethyl-",496.75,1,CCc1c2ccccc2cc2c1ccc1ccccc12,le15,0,0,0,0
"1,2-diphenylethenylbenzene",438.15,1,C(=C(c1ccccc1)c1ccccc1)c1ccccc1,le15,0,0,0,0
"1,6-Dioxacycloheptadecan-17-one",447.55,1,O=C1CCCCCCCCCCOCCCCO1,le15,0,0,0,0
"1,7-Dioxacycloheptadecan-17-one",447.55,1,O=C1CCCCCCCCCOCCCCCO1,le15,0,0,0,0
"Myristic acid, ethyl ester (8CI)",386.15,1,CCCCCCCCCCCCCC(=O)OCC,le15,0,0,0,1
"Hexanoic acid, 2-ethyl-, 2-ethylhexyl ester",410.25,1,CCCCC(CC)COC(=O)C(CC)CCCC,le15,0,0,0,1
octyl octanoate,412.95,1,CCCCCCCCOC(=O)CCCCCCC,le15,0,0,0,0
"1,3-Indandione, 2-(p-chlorophenyl)-",456.55,1,O=C1c2ccccc2C(=O)C1c1ccc(Cl)cc1,le15,0,0,0,0
"Acetic acid, ((4-chloro-o-tolyl)oxy)-, butyl ester",397.95,1,CCCCOC(=O)COc1cc(Cl)ccc1C,le15,0,0,0,1
"1H-Pyrrole, 3-chloro-4-(3-chloro-2-nitrophenyl)-",475.25,1,O=[N+]([O-])c1c(Cl)cccc1-c1c[nH]cc1Cl,le15,0,0,0,0
"1,6-Dinitrocarbazole",551.85,1,O=[N+]([O-])c1ccc2[nH]c3c([N+](=O)[O-])cccc3c2c1,le15,0,0,0,0
"3,6-Dinitro-9H-carbazole",551.85,1,O=[N+]([O-])c1ccc2[nH]c3ccc([N+](=O)[O-])cc3c2c1,le15,0,0,0,0
"Phenol, 3,5-dimethyl-4-(methylsulfonyl)-, methylcarbamate (9CI)",482.65,1,CNC(=O)Oc1cc(C)c(S(C)(=O)=O)c(C)c1,le15,0,0,0,0
"Benz(c)acridine, 7,9-dimethyl-",481.85,1,Cc1ccc2nc3c(ccc4ccccc43)c(C)c2c1,le15,0,0,0,0
"Benz(c)acridine, 7,10-dimethyl-",482.95,1,Cc1ccc2c(C)c3ccc4ccccc4c3nc2c1,le15,0,0,0,0
"Phosphonic acid, (2,2,2-trichloro-1-hydroxyethyl)-, dimethyl ester",389.85,1,COP(=O)(OC)C(O)C(Cl)(Cl)Cl,le15,0,0,0,1
"Phenol, 3,4,5-trichloro-2,6-dimethoxy-",430.85,1,COc1c(O)c(OC)c(Cl)c(Cl)c1Cl,le15,0,0,0,0
"Acetamide, N-chloro-N-9H-fluoren-2-yl-",481.15,1,CC(=O)N(Cl)c1ccc2c(c1)Cc1ccccc1-2,le15,0,0,0,0
"Acetic acid, (4-chlorophenoxy)-, 2-(dimethylamino)ethyl ester (9CI)",436.15,1,CN(C)CCOC(=O)COc1ccc(Cl)cc1,le15,0,0,0,1
"1,3,5-Triazine-2,4-diamine, 6-chloro-N,N,N',N'-tetraethyl- (9CI)",461.45,1,CCN(CC)c1nc(Cl)nc(N(CC)CC)n1,le15,0,0,0,0
"Malealdehydic acid, dibromo- (8CI)",421.55,1,O=C/C(Br)=C(/Br)C(=O)O,le15,0,0,0,1
"Thiophene, tetrahydro-3,3,4,4-tetrachloro-, 1,1-dioxide",468.25,1,O=S1(=O)CC(Cl)(Cl)C(Cl)(Cl)C1,le15,0,0,0,0
"1,7-dibromoheptane",405.95,1,BrCCCCCCCBr,le15,0,0,0,0
"Benzimidazole, 4,5,6,7-tetrafluoro-2-(trifluoromethyl)-",389.95,1,Fc1c(F)c(F)c2[nH]c(C(F)(F)F)nc2c1F,le15,0,0,0,0
"Carbamic acid, (3-chlorophenyl)-, 4-chloro-2-butynyl ester (9CI)",433.05,1,O=C(Nc1cccc(Cl)c1)OCC#CCCl,le15,0,0,0,1
S-Dichlorovinyl-N-acetylcysteine,516.35,1,CC(=O)N[C@@H](CSC=C(Cl)Cl)C(=O)O,le15,0,0,0,0
"Xanthen-9-one, 1,7-dihydroxy-3-methoxy-",478.35,1,COc1cc(O)c2c(=O)c3cc(O)ccc3oc2c1,le15,0,0,0,0
"9H-Xanthen-9-one, 1,3-dihydroxy-7-methoxy- (9CI)",478.15,1,COc1ccc2oc3cc(O)cc(O)c3c(=O)c2c1,le15,0,0,0,0
"1H-Isoindole-1,3(2H)-dione, 2-(2,6-dioxo-3-piperidinyl)-",535.25,1,O=C1CCC(N2C(=O)c3ccccc3C2=O)C(=O)N1,le15,0,0,0,0
"Chrysene-1,2-quinone",490.35,1,O=C1C=Cc2c(ccc3c2ccc2ccccc23)C1=O,le15,0,0,0,0
"Benz(a)anthracene-7,12-quinone",448.65,1,O=C1c2ccccc2C(=O)c2c1ccc1ccccc21,le15,0,0,0,0
"1-Naphthalenebutanoic acid, 4-methoxy-gamma-oxo-",469.75,1,COc1ccc(C(=O)CCC(=O)O)c2ccccc12,le15,0,0,0,1
"Azoxybenzene, 4,4'-dimethoxy- (8CI)",479.75,1,COc1ccc(N=[N+]([O-])c2ccc(OC)cc2)cc1,le15,0,0,0,0
phenyl-(4-phenylphenyl)methanone,463.85,1,O=C(c1ccccc1)c1ccc(-c2ccccc2)cc1,le15,0,0,0,0
"Benz(a)anthracene, 5,6-epoxy-5,6-dihydro-7-methyl-",492.25,1,Cc1c2c(cc3ccccc13)-c1ccccc1C1OC21,le15,0,0,0,0
"2-Benzofurancarboxamide, 5-(1-piperidinylmethyl)- (9CI)",495.35,1,NC(=O)c1cc2cc(CN3CCCCC3)ccc2o1,le15,0,0,0,0
"Propionic acid, 2,2'-azobis(2-methyl-, diethyl ester",386.05,1,CCOC(=O)C(C)(C)N=NC(C)(C)C(=O)OCC,le15,0,0,0,1
"Phosphorothioic acid, O,O-diethyl S-(2-(ethylthio)ethyl) ester",420.75,1,CCOP(=O)(OCC)SCCSCC,le15,0,0,0,1
"1,2-diphenylethylbenzene",430.05,1,c1ccc(CC(c2ccccc2)c2ccccc2)cc1,le15,0,0,0,0
"2,6-Octadien-1-ol, 3,7-dimethyl-, benzoate, (2E)-",426.55,1,CC(C)=CCC/C(C)=C/COC(=O)c1ccccc1,le15,0,0,0,0
"1,6-Octadien-3-ol, 3,7-dimethyl-, benzoate",431.85,1,C=CC(C)(CCC=C(C)C)OC(=O)c1ccccc1,le15,0,0,0,0
"Hexanedioic acid, 1,6-bis(2-methylpropyl) ester",395.75,1,CC(C)COC(=O)CCCCC(=O)OCC(C)C,le15,0,0,0,1
"1,2-Propanediol, 1-laurate",412.45,1,CCCCCCCCCCCC(=O)OCC(C)O,le15,0,0,0,0
1-octylsulfanyloctane,445.35,1,CCCCCCCCSCCCCCCCC,le15,0,0,0,0
hexadecane-1-thiol,374.85,1,CCCCCCCCCCCCCCCCS,le15,0,0,0,0
"Benzoic acid, 2-(acetyloxy)-5-bromo- (9CI)",449.75,1,CC(=O)Oc1ccc(Br)cc1C(=O)O,le15,0,0,0,1
"Ethanone, 2-bromo-1-(2,5-dimethoxyphenyl)-",422.35,1,COc1ccc(OC)c(C(=O)CBr)c1,le15,0,0,0,0
4-nitro-N-(4-nitrophenyl)aniline,507.55,1,O=[N+]([O-])c1ccc(Nc2ccc([N+](=O)[O-])cc2)cc1,le15,0,0,0,0
"Furo(2,3-b)quinoline, 4,6,8-trimethoxy-",481.55,1,COc1cc(OC)c2nc3occc3c(OC)c2c1,le15,0,0,0,0
"Benzene, 1-chloro-3-(2-(4-nitrophenyl)ethenyl)-, (E)-",455.55,1,O=[N+]([O-])c1ccc(/C=C/c2cccc(Cl)c2)cc1,le15,0,0,0,0
"Benzenemethanamine, N-(2-chloroethyl)-N-(phenylmethyl)-",420.45,1,ClCCN(Cc1ccccc1)Cc1ccccc1,le15,0,0,0,0
"Propionic acid, 2,3-dibromo-, ethyl ester (6CI,7CI,8CI)",364.15,1,CCOC(=O)C(Br)CBr,le15,0,0,0,1
"Fumaric acid, dihydroxy-, dimethyl ester, diacetate",413.25,1,CC(=O)O.CC(=O)O.COC(=O)/C(O)=C(\O)C(=O)OC,le15,0,0,0,1
"4-Hydroxy-3,5-dinitrobiphenyl",420.05,1,O=[N+]([O-])c1cc(-c2ccccc2)cc([N+](=O)[O-])c1O,le15,0,0,0,0
"5H-Furo(3,2-g)(1)benzopyran-5-one, 4,9-dimethoxy-7-methyl-",491.95,1,COc1c2occc2c(OC)c2c(=O)cc(C)oc12,le15,0,0,0,0
"p-Benzoquinone, 2,5-diphenyl- (8CI)",443.65,1,O=C1C=C(c2ccccc2)C(=O)C=C1c1ccccc1,le15,0,0,0,0
"1,2,3-Propanetriol, tripropanoate",393.95,1,CCC(=O)OCC(COC(=O)CC)OC(=O)CC,le15,0,0,0,0
"2,4-Pyrimidinediamine, 5-((3,4-dimethoxyphenyl)methyl)-",533.05,1,COc1ccc(Cc2cnc(N)nc2N)cc1OC,le15,0,0,0,0
triphenylmethanol,441.85,1,OC(c1ccccc1)(c1ccccc1)c1ccccc1,le15,0,0,0,0
"Phosphorothioic acid, O,O-diethyl S-((ethylsulfinyl)methyl) ester",453.45,1,CCOP(=O)(OCC)SCS(=O)CC,le15,0,0,0,1
"alpha-Phenyl(1,1'-biphenyl)-4-methanol",453.75,1,OC(c1ccccc1)c1ccc(-c2ccccc2)cc1,le15,0,0,0,0
"1,4-Benzenediamine, N,N'-diphenyl-",570.15,1,c1ccc(Nc2ccc(Nc3ccccc3)cc2)cc1,le15,0,0,0,0
"(1,1':4',1''-Terphenyl)-4,4''-diamine",569.45,1,Nc1ccc(-c2ccc(-c3ccc(N)cc3)cc2)cc1,le15,0,0,0,0
"1-Oxa-3,8-diazaspiro(4,5)decan-2-one, 8-(2-phenylethyl)- (9CI)",513.75,1,O=C1NCC2(CCN(CCc3ccccc3)CC2)O1,le15,0,0,0,0
"Phosphonodithioic acid, ethyl-, O-ethyl S-(4-methylphenyl) ester (9CI)",435.75,1,CCOP(=S)(CC)Sc1ccc(C)cc1,le15,0,0,0,1
"Phosphonodithioic acid, ethyl-, O-ethyl S-(o-tolyl) ester",428.55,1,CCOP(=S)(CC)Sc1ccccc1C,le15,0,0,0,1
"Phosphorodithioic acid, O,O-diethyl S-(ethylthio)methyl ester",405.95,1,CCOP(=S)(OCC)SCSCC,le15,0,0,0,1
"Fluorene-9-carboxylic acid, 2-chloro-9-hydroxy- (8CI)",543.95,1,O=C(O)C1(O)c2ccccc2-c2ccc(Cl)cc21,le15,0,0,0,1
"1,3-Butadiene, 1,1,2,3,4,4-hexachloro-",365.35,1,ClC(Cl)=C(Cl)C(Cl)=C(Cl)Cl,le15,0,0,0,0
"Benzene, 1,2,4,5-tetrachloro-3-nitro-",416.25,1,O=[N+]([O-])c1c(Cl)c(Cl)cc(Cl)c1Cl,le15,0,0,0,0
1-chlorohexadecane,411.25,1,CCCCCCCCCCCCCCCCCl,le15,0,0,0,0
"1-(bromomethyl)-2,3,4,5,6-pentafluorobenzene",355.15,1,Fc1c(F)c(F)c(CBr)c(F)c1F,le15,0,0,0,0
"Methanone, (4-bromophenyl)phenyl- (9CI)",354.45,1,O=C(c1ccccc1)c1ccc(Br)cc1,le15,0,0,0,0
"1,3,5-Triazine-2,4,6(1H,3H,5H)-trione, 1,3,5-tris(2-hydroxyethyl)-",545.45,1,O=c1n(CCO)c(=O)n(CCO)c(=O)n1CCO,le15,0,0,0,0
"Phosphorothioic acid, O-(4-aminophenyl) O,O-diethyl ester",436.35,1,CCOP(=S)(OCC)Oc1ccc(N)cc1,le15,0,0,0,1
"2-Naphthalenamine, 1-((2-methylphenyl)azo)-",516.45,1,Cc1ccccc1N=Nc1c(N)ccc2ccccc12,le15,0,0,0,0
3-trichlorosilylpropyl 2-methylprop-2-enoate,391.45,1,C=C(C)C(=O)OCCC[Si](Cl)(Cl)Cl,le15,1,1,0,0
"1,3-Propanediol, 2,2-bis(bromomethyl)-",451.25,1,OCC(CO)(CBr)CBr,le15,0,0,0,0
"Benzenamine, 2-bromo-4,6-dinitro-",469.35,1,Nc1c(Br)cc([N+](=O)[O-])cc1[N+](=O)[O-],le15,0,0,0,0
methyl 2-iodobenzoate,383.45,1,COC(=O)c1ccccc1I,le15,0,0,0,0
methyl 3-iodobenzoate,403.85,1,COC(=O)c1cccc(I)c1,le15,0,0,0,0
"Phosphine, triphenyl-",454.85,1,c1ccc(P(c2ccccc2)c2ccccc2)cc1,le15,0,0,0,0
1-((4-Methylphenyl)azo)-2-naphthalenol,483.25,1,Cc1ccc(N=Nc2c(O)ccc3ccccc23)cc1,le15,0,0,0,0
"dibutyl (2R,3R)-2,3-dihydroxybutanedioate",440.15,1,CCCCOC(=O)[C@H](O)[C@@H](O)C(=O)OCCCC,le15,0,0,0,0
Benzyl tosylate,476.55,1,Cc1ccc(S(=O)(=O)OCc2ccccc2)cc1,le15,0,0,0,0
"Phosphorodithioic acid, S-(2-(ethylsulfinyl)ethyl) O,O-dimethyl ester",459.35,1,CCS(=O)CCSP(=S)(OC)OC,le15,0,0,0,1
"Phenol, 2,4,6-tri-tert-butyl- (6CI,7CI,8CI)",402.45,1,CC(C)(C)c1cc(C(C)(C)C)c(O)c(C(C)(C)C)c1,le15,0,0,0,0
"Arsonic acid, (4-hydroxy-3-nitrophenyl)-",513.481,1,O=[N+]([O-])c1cc([As](=O)(O)O)ccc1O,le15,0,1,0,1
"Glycine, N,N-bis(phosphonomethyl)-",631.15,1,O=C(O)CN(CP(=O)(O)O)CP(=O)(O)O,le15,0,0,0,0
"Phosphorothioic acid, O,O-dimethyl O-(4-nitrophenyl) ester",319.25,1,COP(=S)(OC)Oc1ccc([N+](=O)[O-])cc1,le15,0,0,0,1
"Pyren-6-ol, 1-nitro-",491.45,1,O=[N+]([O-])c1ccc2ccc3c(O)ccc4ccc1c2c43,le15,0,0,0,0
"Pyren-8-ol, 1-nitro-",491.45,1,O=[N+]([O-])c1ccc2ccc3ccc(O)c4ccc1c2c34,le15,0,0,0,0
1-bromotridecane,383.15,1,CCCCCCCCCCCCCBr,le15,0,0,0,0
"5H-Dibenzo(a,d)cycloheptene-5-propanamine, N-methyl-",471.45,1,CNCCCC1c2ccccc2C=Cc2ccccc21,le15,0,0,0,0
"Pyrrolidine, 3-(diphenylmethylene)-1-ethyl-",446.15,1,CCN1CCC(=C(c2ccccc2)c2ccccc2)C1,le15,0,0,0,0
"Phenol, 3,5-bis(1,1-dimethylethyl)-, methylcarbamate (9CI)",416.55,1,CNC(=O)Oc1cc(C(C)(C)C)cc(C(C)(C)C)c1,le15,0,0,0,0
"N,N-Bis(2,2-diethoxyethyl)methylamine",353.35,1,CCOC(CN(C)CC(OCC)OCC)OCC,le15,0,0,0,0
"9-Octadecenenitrile, (9Z)-",464.25,1,CCCCCCCC/C=C\CCCCCCCC#N,le15,0,0,0,0
"1,2,3,4-tetrachloro-5,5-dimethoxycyclopenta-1,3-diene",339.85,1,COC1(OC)C(Cl)=C(Cl)C(Cl)=C1Cl,le15,0,0,0,0
"Benzene, (1,2-dibromoethyl)-",389.65,1,BrCC(Br)c1ccccc1,le15,0,0,0,0
"o-Xylene, alpha,alpha'-dibromo- (8CI)",406.75,1,BrCc1ccccc1CBr,le15,0,0,0,0
"m-Xylene, alpha,alpha'-dibromo- (8CI)",411.25,1,BrCc1cccc(CBr)c1,le15,0,0,0,0
"Phosphorothioic acid, O,O-dimethyl O-(p-(methylthio)phenyl) ester",420.95,1,COP(=S)(OC)Oc1ccc(SC)cc1,le15,0,0,0,1
"2-Propenoic acid, 3-phenyl-, 3-phenyl-2-propenyl ester",554.35,1,O=C(C=Cc1ccccc1)OCC=Cc1ccccc1,le15,0,0,0,1
"Toluene, alpha,alpha,alpha,3,4-pentachloro- (8CI)",396.65,1,Clc1ccc(C(Cl)(Cl)Cl)cc1Cl,le15,0,0,0,0
"2-Benzothiazolesulfenamide, N-cyclohexyl-",475.15,1,c1ccc2sc(SNC3CCCCC3)nc2c1,le15,0,0,0,0
"Ethanamine, 2,2'-dithiobis(N,N-diethyl-",424.15,1,CCN(CC)CCSSCCN(CC)CC,le15,0,0,0,0
"2-Propanone, 1,1,1,3,3,3-hexachloro-",349.35,1,O=C(C(Cl)(Cl)Cl)C(Cl)(Cl)Cl,le15,0,0,0,0
"Phosphonothioic acid, ethyl-, O-(4-chlorophenyl) O-ethyl ester",416.85,1,CCOP(=S)(CC)Oc1ccc(Cl)cc1,le15,0,0,0,1
"Benzimidazole, 5-bromo-2-(trifluoromethyl)-",422.55,1,FC(F)(F)c1nc2ccc(Br)cc2[nH]1,le15,0,0,0,0
"Phosphorothioic acid, S-1,2-dichlorovinyl O,O-diethyl ester",399.05,1,CCOP(=O)(OCC)SC(Cl)=CCl,le15,0,0,0,1
"Phosphorothioic acid, S-2,2-dichlorovinyl O,O-diethyl ester",387.05,1,CCOP(=O)(OCC)SC=C(Cl)Cl,le15,0,0,0,1
"4(3H)-Quinazolinone, 6-amino-2-methyl-3-(o-tolyl)-",519.45,1,Cc1ccccc1-n1c(C)nc2ccc(N)cc2c1=O,le15,0,0,0,0
"1,4-Benzodioxan, 2-(butylaminomethyl)-8-ethoxy-",426.05,1,CCCCNCC1COc2cccc(OCC)c2O1,le15,0,0,0,0
"Benzimidazole, 4-chloro-6-nitro-2-(trifluoromethyl)-",457.85,1,O=[N+]([O-])c1cc(Cl)c2[nH]c(C(F)(F)F)nc2c1,le15,0,0,0,0
"Benzimidazole, 5-chloro-6-nitro-2-(trifluoromethyl)-",465.85,1,O=[N+]([O-])c1cc2nc(C(F)(F)F)[nH]c2cc1Cl,le15,0,0,0,0
"1,3-Benzenedicarbonitrile, 2,4,5,6-tetrachloro-",426.95,1,N#Cc1c(Cl)c(Cl)c(Cl)c(C#N)c1Cl,le15,0,0,0,0
"Nonane, 1,1,1,9-tetrachloro-",389.35,1,ClCCCCCCCCC(Cl)(Cl)Cl,le15,0,0,0,0
"3(2H)-Pyridazinone, 5-amino-4-bromo-2-phenyl-",423.75,1,Nc1cnn(-c2ccccc2)c(=O)c1Br,le15,0,0,0,0
"2-Ethyl-2,5,6,7,8-pentahydroxy-1,4-naphthoquinone",360.55,1,CCC1(O)CC(=O)c2c(O)c(O)c(O)c(O)c2C1=O,le15,0,0,0,0
"Phenol, 2-cyclohexyl-4,6-dinitro-",402.75,1,O=[N+]([O-])c1cc(C2CCCCC2)c(O)c([N+](=O)[O-])c1,le15,0,0,0,0
"7-beta-D-ribofuranosyl-7H-pyrrolo-(2,3-d)pyrimidin-4-amine (9CI)",619.35,1,Nc1ncnc2c1ccn2[C@@H]1O[C@H](CO)[C@@H](O)[C@H]1O,le15,0,0,0,0
"Methanone, (2-ethyl-3-benzofuranyl)(4-hydroxyphenyl)-",513.35,1,CCc1oc2ccccc2c1C(=O)c1ccc(O)cc1,le15,0,0,0,0
"Phenol, pentachloro-",406.85,1,Oc1c(Cl)c(Cl)c(Cl)c(Cl)c1Cl,le15,0,0,0,0
"Benzene, 1-(1,1-dimethylethyl)-2,6-dinitro-3,4,5-trimethyl-",447.75,1,Cc1c(C)c([N+](=O)[O-])c(C(C)(C)C)c([N+](=O)[O-])c1C,le15,0,0,0,0
"9H-Indeno(2,1-c)phenanthrene",516.05,1,c1ccc2c(c1)Cc1ccc3ccc4ccccc4c3c1-2,le15,0,0,0,0
6-Methylbenzo(def)chrysene,509.85,1,Cc1c2ccccc2c2ccc3cccc4ccc1c2c43,le15,0,0,0,0
"Benzo(a)pyrene, 12-methyl-",509.85,1,Cc1cc2c3ccccc3cc3ccc4cccc1c4c32,le15,0,0,0,0
"13H-Indeno(1,2-c)phenanthrene",516.05,1,c1ccc2c(c1)Cc1c-2ccc2ccc3ccccc3c12,le15,0,0,0,0
"Phenol, 4,4'-(1,2-diethylidene-1,2-ethanediyl)bis-",454.55,1,CC=C(C(=CC)c1ccc(O)cc1)c1ccc(O)cc1,le15,0,0,0,0
"2-Propenoic acid, 3-phenyl-, 3-phenylpropyl ester",533.75,1,O=C(C=Cc1ccccc1)OCCCc1ccccc1,le15,0,0,0,1
Phosphoric acid tributyl ester,466.45,1,CCCCOP(=O)(OCCCC)OCCCC,le15,0,0,0,1
"(1,1-Biphenyl)-4-acetic acid, alpha-2-butenyl-",597.35,1,CC=CCC(C(=O)O)c1ccc(-c2ccccc2)cc1,le15,0,0,0,1
"Phosphoric acid, tris(2-methylpropyl) ester",398.95,1,CC(C)COP(=O)(OCC(C)C)OCC(C)C,le15,0,0,0,1
"Acetamide, N-(4-(2-hydroxy-3-((1-methylethyl)amino)propoxy)phenyl)-",525.45,1,CC(=O)Nc1ccc(OCC(O)CNC(C)C)cc1,le15,0,0,0,0
"5H-Dibenz(b,f)azepine, 10,11-dihydro-5-(3-(methylamino)propyl)-",433.65,1,CNCCCN1c2ccccc2CCc2ccccc21,le15,0,0,0,0
"1,4-Benzenediamine, N-cyclohexyl-N'-phenyl-",549.05,1,c1ccc(Nc2ccc(NC3CCCCC3)cc2)cc1,le15,0,0,0,0
"Biphenyl, 4-octyl- (6CI,7CI,8CI)",474.35,1,CCCCCCCCc1ccc(-c2ccccc2)cc1,le15,0,0,0,0
"2-Benzothiazolesulfenamide, N,N-bis(1-methylethyl)-",437.65,1,CC(C)N(Sc1nc2ccccc2s1)C(C)C,le15,0,0,0,0
tetradecylcyclopentane,427.25,1,CCCCCCCCCCCCCCC1CCCC1,le15,0,0,0,0
"2,3,4,5,6-pentafluorobenzenesulfonyl chloride",354.25,1,O=S(=O)(Cl)c1c(F)c(F)c(F)c(F)c1F,le15,0,0,0,0
"1,1,2-tribromoethane",340.75,1,BrCC(Br)Br,le15,0,0,0,0
3-Nitro-5-fluoro-1-iodobenzene,394.85,1,O=[N+]([O-])c1cc(F)cc(I)c1,le15,0,0,0,0
"9,10-Anthracenedione, 2-methyl-1-nitro- (9CI)",521.85,1,Cc1ccc2c(c1[N+](=O)[O-])C(=O)c1ccccc1C2=O,le15,0,0,0,0
"4H-Pyrrolo(2,3-d)pyrimidin-4-one, 1,7-dihydro-7-beta-D-ribofuranosyl-",604.85,1,O=c1nc[nH]c2c1ccn2[C@@H]1O[C@H](CO)[C@@H](O)[C@H]1O,le15,0,0,0,0
"L-Glutamine, N-(4-nitrophenyl)-",584.15,1,NC(=O)CC[C@H](Nc1ccc([N+](=O)[O-])cc1)C(=O)O,le15,0,0,0,0
9-beta-D-Arabinofuranosyl-9H-purin-6-amine (9CI),635.95,1,Nc1ncnc2c1ncn2[C@@H]1O[C@H](CO)[C@@H](O)[C@@H]1O,le15,0,0,0,0
Adenosine,635.95,1,Nc1ncnc2c1ncn2[C@@H]1O[C@H](CO)[C@@H](O)[C@H]1O,le15,0,0,0,0
"1,4-Oxathiin-3-carboxamide, 5,6-dihydro-2-methyl-N-phenyl-, 4,4-dioxid",546.05,1,CC1=C(C(=O)Nc2ccccc2)S(=O)(=O)CCO1,le15,0,0,0,0
"Benzenesulfonamide, 4-amino-N-(3,4-dimethyl-5-isoxazolyl)-",518.55,1,Cc1noc(NS(=O)(=O)c2ccc(N)cc2)c1C,le15,0,0,0,0
"7H-Dibenzo(c,g)carbazole",519.65,1,c1ccc2c(c1)ccc1[nH]c3ccc4ccccc4c3c12,le15,0,0,0,0
"2-Piperidinemethanol, alpha,alpha-diphenyl-",400.55,1,OC(c1ccccc1)(c1ccccc1)C1CCCCN1,le15,0,0,0,0
"Benzenamine, 4,4'-carbonimidoylbis(N,N-dimethyl-",472.55,1,CN(C)c1ccc(C(=N)c2ccc(N(C)C)cc2)cc1,le15,0,0,0,0
"Pentanoic acid, 4-(1-piperidinyl)cyclohexyl ester (9CI)",381.75,1,CCCCC(=O)OC1CCC(N2CCCCC2)CC1,le15,0,0,0,1
"Isovaleric acid, 4-piperidinocyclohexyl ester",379.35,1,CC(C)CC(=O)OC1CCC(N2CCCCC2)CC1,le15,0,0,0,1
"Benzyl alcohol, alpha-(trichloromethyl)-, acetate (9CI)",418.25,1,CC(=O)OC(c1ccccc1)C(Cl)(Cl)Cl,le15,0,0,0,0
"Quinoxaline, 5,6,7,8-tetrachloro-",488.15,1,Clc1c(Cl)c(Cl)c2nccnc2c1Cl,le15,0,0,0,0
"1,4,5,8-Naphthalenetetracarboxylic 1,8:4,5-dianhydride (8CI)",553.55,1,O=c1oc(=O)c2ccc3c(=O)oc(=O)c4ccc1c2c43,le15,0,0,0,0
"6H-Benzofuro(3,2-c)(1)benzopyran-6-one, 3,9-dihydroxy-",472.45,1,O=c1oc2cc(O)ccc2c2oc3cc(O)ccc3c12,le15,0,0,0,0
"1,1'-(m-Phenylene)bis-1H-pyrrole-2,5-dione (9CI)",523.85,1,O=C1C=CC(=O)N1c1cccc(N2C(=O)C=CC2=O)c1,le15,0,0,0,0
Inosine,670.143,1,OC[C@H]1O[C@@H](n2cnc3c(O)ncnc32)[C@H](O)[C@@H]1O,le15,0,0,0,0
"9(10H)-Anthracenone, 10-acetyl-1,8-dihydroxy-",528.05,1,CC(=O)C1c2cccc(O)c2C(=O)c2c(O)cccc21,le15,0,0,0,0
"Benzene, 1-(1,1-dimethylethyl)-2-methoxy-4-methyl-3,5-dinitro-",422.75,1,COc1c(C(C)(C)C)cc([N+](=O)[O-])c(C)c1[N+](=O)[O-],le15,0,0,0,0
"Anthraquinone, 1,4,5,8-tetraamino- (8CI)",657.45,1,Nc1ccc(N)c2c1C(=O)c1c(N)ccc(N)c1C2=O,le15,0,0,0,0
"Benzenamine, N,N-dimethyl-4-(2-(4-nitrophenyl)ethenyl)-",475.95,1,CN(C)c1ccc(C=Cc2ccc([N+](=O)[O-])cc2)cc1,le15,0,0,0,0
"Benz(j)aceanthrylene, 1,2-dihydro-3-methyl-",268.15,1,Cc1ccc2cc3c(ccc4ccccc43)c3c2c1CC3,le15,0,0,0,0
"Urea, N,N'-diethyl-N,N'-diphenyl-",423.95,1,CCN(C(=O)N(CC)c1ccccc1)c1ccccc1,le15,0,0,0,0
"Methanone, bis(4-(dimethylamino)phenyl)-",493.15,1,CN(C)c1ccc(C(=O)c2ccc(N(C)C)cc2)cc1,le15,0,0,0,0
"1,4-Benzenediamine, N-(1,3-dimethylbutyl)-N'-phenyl-",477.15,1,CC(C)CC(C)Nc1ccc(Nc2ccccc2)cc1,le15,0,0,0,0
(Z)-octadec-9-en-1-ol,393.85,1,CCCCCCCC/C=C\CCCCCCCCO,le15,0,0,0,0
"Phosphorodithioic acid, S-(4-chlorophenyl) O,O-dimethyl ester",424.35,1,COP(=S)(OC)Sc1ccc(Cl)cc1,le15,0,0,0,1
"Phenol, 2,2'-methylenebis(4-chloro-",480.15,1,Oc1ccc(Cl)cc1Cc1cc(Cl)ccc1O,le15,0,0,0,0
"Sulfamide, N-(2,4-dichlorobenzyl)-N-methyl-",477.05,1,CN(Cc1ccc(Cl)cc1Cl)S(N)(=O)=O,le15,0,0,0,0
"Benzene, 1-chloro-4-(((4-chlorophenyl)methyl)thio)-",441.55,1,Clc1ccc(CSc2ccc(Cl)cc2)cc1,le15,0,0,0,0
"Acetamide, N-(4-(2-(2-hydroxy-5-methylphenyl)diazenyl)phenyl)-",549.85,1,CC(=O)Nc1ccc(N=Nc2cc(C)ccc2O)cc1,le15,0,0,0,0
N-naphthalen-2-ylnaphthalen-2-amine,541.65,1,c1ccc2cc(Nc3ccc4ccccc4c3)ccc2c1,le15,0,0,0,0
"(1,1'-Biphenyl)-4-ol, 3-(4-morpholinylmethyl)-",474.05,1,Oc1ccc(-c2ccccc2)cc1CN1CCOCC1,le15,0,0,0,0
"Ethanol, 2-chloro-, phosphite (3:1)",370.35,1,OCCCl.OCCCl.OCCCl.OP(O)O,le15,0,0,0,0
"Propionic acid, 2-(2,4,5-trichlorophenoxy)-",455.75,1,CC(Oc1cc(Cl)c(Cl)cc1Cl)C(=O)O,le15,0,0,0,1
1-Octadecanamine,421.15,1,CCCCCCCCCCCCCCCCCCN,le15,0,0,0,0
"2-Bromo-3,3-dimethyl-N-phenylbutanamide",453.05,1,CC(C)(C)C(Br)C(=O)Nc1ccccc1,le15,0,0,0,0
"9,10-Anthracenedione, 1,3-dihydroxy-2-(hydroxymethyl)- (9CI)",594.75,1,O=C1c2ccccc2C(=O)c2c1cc(O)c(CO)c2O,le15,0,0,0,0
"9,10-Anthracenedione, 1,8-dihydroxy-3-(hydroxymethyl)- (9CI)",585.05,1,O=C1c2cccc(O)c2C(=O)c2c(O)cc(CO)cc21,le15,0,0,0,0
"Anthraquinone, 1,3,8-trihydroxy-6-methyl- (8CI)",595.95,1,Cc1cc(O)c2c(c1)C(=O)c1cc(O)cc(O)c1C2=O,le15,0,0,0,0
"4H-1-Benzopyran-4-one, 3,5,7-trihydroxy-2-phenyl- (9CI)",475.15,1,O=c1c(O)c(-c2ccccc2)oc2cc(O)cc(O)c12,le15,0,0,0,0
"4H-1-Benzopyran-4-one, 5,7-dihydroxy-2-(4-hydroxyphenyl)- (9CI)",490.15,1,O=c1cc(-c2ccc(O)cc2)oc2cc(O)cc(O)c12,le15,0,0,0,0
"Maleic anhydride, dihydroxy-, dibutyrate",435.65,1,CCCC(=O)O.CCCC(=O)O.O=C1OC(=O)C(O)=C1O,le15,0,0,0,0
"9,10-Anthracenedione, 1,5-diamino-4,8-dihydroxy-",619.75,1,Nc1ccc(O)c2c1C(=O)c1c(O)ccc(N)c1C2=O,le15,0,0,0,0
"Benzene, 1,1'-(1,2-ethenediyl)bis(4-nitro-, (E)-",455.85,1,O=[N+]([O-])c1ccc(/C=C/c2ccc([N+](=O)[O-])cc2)cc1,le15,0,0,0,0
"7H-Furo(3,2-g)(1)benzopyran-7-one, 9-((3-methyl-2-butenyl)oxy)-",498.05,1,CC(C)=CCOc1c2occc2cc2ccc(=O)oc12,le15,0,0,0,0
"Anthrone, 1,8-dihydroxy-3-methoxy-6-methyl-",483.25,1,COc1cc(O)c2c(c1)Cc1cc(C)cc(O)c1C2=O,le15,0,0,0,0
"Benzenesulfonamide, 4-amino-N-(5-methyl-1,3,4-thiadiazol-2-yl)-",532.25,1,Cc1nnc(NS(=O)(=O)c2ccc(N)cc2)s1,le15,0,0,0,0
"Estra-1,3,5(10)-trien-17-one, 3-hydroxy-",462.85,1,C[C@]12CC[C@@H]3c4ccc(O)cc4CC[C@H]3[C@@H]1CCC2=O,le15,0,0,0,0
"Peroxide, bis(alpha,alpha-dimethylbenzyl)",372.75,1,CC(C)(OOC(C)(C)c1ccccc1)c1ccccc1,le15,0,0,0,0