compound,flashpoint,pure substance,smiles,source,is_silicon,is_metallic,is_tin,is_acid
3-Chlorocrotonaldehyde,312.85,1,C/C(Cl)=C/C=O,le15,0,0,0,0
1-chloro-3-methylbut-2-ene,277.15,1,CC(C)=CCCl,le15,0,0,0,0
chlorocyclopentane,288.15,1,ClC1CCCC1,le15,0,0,0,0
"1-Butene, 3-chloro-2-methyl-",275.15,1,C=C(C)C(C)Cl,le15,0,0,0,0
"2-Butene, 1-chloro-2-methyl-",281.95,1,CC=C(C)CCl,le15,0,0,0,0
Chlorocyclopentane,288.0,1,ClC1CCCC1,le15,0,0,0,0
Serine,465.73199999999997,1,N[C@@H](CO)C(=O)O,le15,0,0,0,0
propan-2-yl nitrate,285.95,1,CC(C)O[N+](=O)[O-],le15,0,0,0,0
"Pyridine, 4-ethenyl-",324.817,1,C=Cc1ccncc1,le15,0,0,0,0
"Pyridine, 2-ethenyl-",319.85,1,C=Cc1ccccn1,le15,0,0,0,0
"Pyridine, 3-ethenyl-",324.05,1,C=Cc1cccnc1,le15,0,0,0,0
"Ethanol, 2-(2-aminoethoxy)-",349.75,1,NCCOCCO,le15,0,0,0,0
"Ethanol, 2,2'-iminobis-",410.92800000000005,1,OCCNCCO,le15,0,0,0,0
"1,3-Propanediol, 2-amino-2-methyl-",382.85,1,CC(N)(CO)CO,le15,0,0,0,0
Diethanolamine,410.0,1,OCCNCCO,le15,0,0,0,0
"Semicarbazide, 4-methyl-3-thio- (8CI)",328.75,1,CNC(=S)NN,le15,0,0,0,0
(E)-hex-3-enedinitrile,419.35,1,N#CC/C=C/CC#N,le15,0,0,0,0
"Ethanol, 2-(methoxymethoxy)-",310.95,1,COCOCCO,le15,0,0,0,0
"Ethanol, 2,2'-oxybis-",416.483,1,OCCOCCO,le15,0,0,0,0
trimethoxymethane,288.75,1,COC(OC)OC,le15,0,0,0,0
Trimethoxymethane,288.0,1,COC(OC)OC,le15,0,0,0,0
"Ethene, (methylsulfonyl)- (9CI)",386.15,1,C=CS(C)(=O)=O,le15,0,0,0,0
"Benzene, 1,3-dimethyl-",298.15,1,Cc1cccc(C)c1,le15,0,0,0,0
"octa-1,7-diyne",296.45,1,C#CCCCCC#C,le15,0,0,0,0
"(1Z,3Z,5Z)-cycloocta-1,3,5-triene",300.95,1,C1=C\C=C/CC\C=C/1,le15,0,0,0,0
Carbonothioic dihydrazide,366.15,1,NNC(=S)NN,le15,0,0,0,0
2-ethylsulfanylethanol,289.25,1,CCSCCO,le15,0,0,0,0
"1,3-dithiolane",336.75,1,C1CSCS1,le15,0,0,0,0
2-methylpropanoyl chloride,274.25,1,CC(C)C(=O)Cl,le15,0,0,0,0
"Ether, 2-chloroethyl vinyl",289.15,1,C=COCCCl,le15,0,0,0,0
Butanoyl chloride,294.85,1,CCCC(=O)Cl,le15,0,0,0,0
2-(chloromethyl)-2-methyloxirane,307.65,1,CC1(CCl)CO1,le15,0,0,0,0
"2-Butanone, 3-chloro-",296.15,1,CC(=O)C(C)Cl,le15,0,0,0,0
2-chloro-2-methylpropanal,298.65,1,CC(C)(Cl)C=O,le15,0,0,0,0
1-chloropentane,284.25,1,CCCCCCl,le15,0,0,0,0
2-chloro-2-methylbutane,276.55,1,CCC(C)(C)Cl,le15,0,0,0,0
2-chloropentane,282.95,1,CCCC(C)Cl,le15,0,0,0,0
"1-chloro-2,2-dimethylpropane",264.25,1,CC(C)(C)CCl,le15,0,0,0,0
1-chloro-3-methylbutane,289.15,1,CC(C)CCCl,le15,0,0,0,0
1chloropentane,314.0,1,CCCCCCl,le15,0,0,0,0
2chloropentane,273.0,1,CCCC(C)Cl,le15,0,0,0,0
Bromoethene (9CI),255.95,1,C=CBr,le15,0,0,0,0
3-Pyridinecarboxaldehyde,357.15,1,O=Cc1cccnc1,le15,0,0,0,0
pyridine-2-carbaldehyde,327.55,1,O=Cc1ccccn1,le15,0,0,0,0
Benzenemethanamine,333.15,1,NCc1ccccc1,le15,0,0,0,0
"Benzenamine, N-methyl-",352.039,1,CNc1ccccc1,le15,0,0,0,0
"Pyridine, 2-ethyl-",302.55,1,CCc1ccccn1,le15,0,0,0,0
"Pyridine, 2,6-dimethyl-",306.45,1,Cc1cccc(C)n1,le15,0,0,0,0
4-ethylpyridine,320.15,1,CCc1ccncc1,le15,0,0,0,0
3-ethylpyridine,322.05,1,CCc1cccnc1,le15,0,0,0,0
"Pyridine, 3,4-dimethyl-",326.15,1,Cc1ccncc1C,le15,0,0,0,0
"3,5-dimethylpyridine",326.15,1,Cc1cncc(C)c1,le15,0,0,0,0
3-Cyclohexene-1-carbonitrile,338.95,1,N#CC1CC=CCC1,le15,0,0,0,0
"2,3-dimethylpyridine",318.55,1,Cc1cccnc1C,le15,0,0,0,0
"Pyridine, 2,5-dimethyl-",321.15,1,Cc1ccc(C)nc1,le15,0,0,0,0
4methylaniline,359.0,1,Cc1ccc(N)cc1,le15,0,0,0,0
"Carbamoyl chloride, dimethyl-",341.45,1,CN(C)C(=O)Cl,le15,0,0,0,0
chloromethyl thiocyanate,357.05,1,N#CSCCl,le15,0,0,0,0
"2,5-Cyclohexadiene-1,4-dione",332.45,1,O=C1C=CC(=O)C=C1,le15,0,0,0,0
"Maleonitrile, diamino- (8CI)",495.85,1,N#C/C(N)=C(/N)C#N,le15,0,0,0,0
"Phenol, 2-methyl-",350.25,1,Cc1ccccc1O,le15,0,0,0,0
Benzenemethanol,370.65,1,OCc1ccccc1,le15,0,0,0,0
"Benzene, methoxy-",317.60400000000004,1,COc1ccccc1,le15,0,0,0,0
"Phenol, 4-methyl-",354.15,1,Cc1ccc(O)cc1,le15,0,0,0,0
"Phenol, 3-methyl-",359.26099999999997,1,Cc1cccc(O)c1,le15,0,0,0,0
"Hydrazine, phenyl-",388.55,1,NNc1ccccc1,le15,0,0,0,0
"1,4-Benzenediamine",409.05,1,Nc1ccc(N)cc1,le15,0,0,0,0
"1,3-Benzenediamine",420.75,1,Nc1cccc(N)c1,le15,0,0,0,0
"Pyrazine, 2,6-dimethyl-",325.95,1,Cc1cncc(C)n1,le15,0,0,0,0
Hexanedinitrile,422.15,1,N#CCCCCC#N,le15,0,0,0,0
"Pyrazine, 2,5-dimethyl-",337.05,1,Cc1cnc(C)cn1,le15,0,0,0,0
"2-Pyridinamine, 4-methyl-",387.15,1,Cc1ccnc(N)c1,le15,0,0,0,0
"4,6-dimethylpyrimidine",329.15,1,Cc1cc(C)ncn1,le15,0,0,0,0
"Pyridine, 2-amino-3-methyl-",383.05,1,Cc1cccnc1N,le15,0,0,0,0
"Pyridine, 2-amino-6-methyl-",376.15,1,Cc1cccc(N)n1,le15,0,0,0,0
"4-Pyridinamine, 3-methyl- (9CI)",411.55,1,Cc1cnccc1N,le15,0,0,0,0
pyridin-2-ylmethanamine,363.15,1,NCc1ccccn1,le15,0,0,0,0
pyridin-3-ylmethanamine,373.15,1,NCc1cccnc1,le15,0,0,0,0
pyridin-4-ylmethanamine,381.45,1,NCc1ccncc1,le15,0,0,0,0
N-methylpyridin-2-amine,360.95,1,CNc1ccccn1,le15,0,0,0,0
"Pyrazine, 2,3-dimethyl-",327.55,1,Cc1nccnc1C,le15,0,0,0,0
"Pyrazine, 2-ethyl-",315.95,1,CCc1cnccn1,le15,0,0,0,0
"2,4-dimethylpyrimidine",309.85,1,Cc1ccnc(C)n1,le15,0,0,0,0
2-ethylbutanedinitrile,399.55,1,CCC(C#N)CC#N,le15,0,0,0,0
"1,2-Benzenediamine",383.15,1,Nc1ccccc1N,le15,0,0,0,0
"2-Pyridinamine, 5-methyl-",384.05,1,Cc1ccc(N)nc1,le15,0,0,0,0
Adiponitrile,432.0,1,N#CCCCCC#N,le15,0,0,0,0
"Cyclohexene, 4-vinyl- (8CI)",289.15,1,C=CC1CC=CCC1,le15,0,0,0,0
"(3E)-2,5-dimethylhexa-1,3,5-triene",291.25,1,C=C(C)/C=C/C(=C)C,le15,0,0,0,0
"(1Z,5Z)-cycloocta-1,5-diene",311.15,1,C1=C\CC/C=C\CC/1,le15,0,0,0,0
1-ethenylcyclohexene,295.85,1,C=CC1=CCCCC1,le15,0,0,0,0
"propane-1,3-dithiol",332.05,1,SCCCS,le15,0,0,0,0
"propane-1,2-dithiol",308.15,1,CC(S)CS,le15,0,0,0,0
bis(methylsulfanyl)methane,316.15,1,CSCSC,le15,0,0,0,0
chloromethyl acetate,282.05,1,CC(=O)OCCl,le15,0,0,0,0
2-methoxyacetyl chloride,301.15,1,COCC(=O)Cl,le15,0,0,0,0
1-chloro-2-methylpropan-2-ol,334.15,1,CC(C)(O)CCl,le15,0,0,0,0
1-chloro-2-ethoxyethane,288.75,1,CCOCCCl,le15,0,0,0,0
"1-Butanol, 4-chloro-",350.35,1,OCCCCCl,le15,0,0,0,0
1-chloro-3-methoxypropane,301.05,1,COCCCCl,le15,0,0,0,0
"Propane, 1-chloro-2,3-epithio-",330.65,1,ClCC1CS1,le15,0,0,0,0
Bromoethane,253.0,1,CCBr,le15,0,0,0,0
"Phenol, 2-amino-",441.15,1,Nc1ccccc1O,le15,0,0,0,0
pyridin-3-ylmethanol,370.65,1,OCc1cccnc1,le15,0,0,0,0
"Phenol, 4-amino-",462.15,1,Nc1ccc(O)cc1,le15,0,0,0,0
"Phenol, 3-amino-",428.15,1,Nc1cccc(O)c1,le15,0,0,0,0
3-methyl-1H-pyridin-2-one,445.85,1,Cc1ccc[nH]c1=O,le15,0,0,0,0
1-(1H-Pyrrol-2-yl)ethan-1-one,365.55,1,CC(=O)c1ccc[nH]1,le15,0,0,0,0
"Hydroxylamine, N-phenyl-",393.35,1,ONc1ccccc1,le15,0,0,0,0
2-methoxypyridine,305.15,1,COc1ccccn1,le15,0,0,0,0
"Pyridine-2,6-diyldiamine",434.45,1,Nc1cccc(N)n1,le15,0,0,0,0
thiophene-2-carbonitrile,326.45,1,N#Cc1cccs1,le15,0,0,0,0
Cyclohexanecarbonitrile,341.95,1,N#CC1CCCCC1,le15,0,0,0,0
"1,2,5-trimethylpyrrole",325.35,1,Cc1ccc(C)n1C,le15,0,0,0,0
Cyclohexanecarbonitrile,338.0,1,N#CC1CCCCC1,le15,0,0,0,0
1-chloro-1-nitroethane,302.85,1,CC(Cl)[N+](=O)[O-],le15,0,0,0,0
1-chloro-2-nitroethane,329.65,1,O=[N+]([O-])CCCl,le15,0,0,0,0
"Acetonitrile, dichloro-",309.15,1,N#CC(Cl)Cl,le15,0,0,0,0
phenylphosphane,244.25,1,Pc1ccccc1,le15,0,0,0,0
"2-Furancarboxaldehyde, 5-methyl-",345.15,1,Cc1ccc(C=O)o1,le15,0,0,0,0
"Ethanone, 1-(2-furanyl)-",344.25,1,CC(=O)c1ccco1,le15,0,0,0,0
Hydroquinone,438.0,1,Oc1ccc(O)cc1,le15,0,0,0,0
"Pyridine, 4-amino-, 1-oxide",358.85,1,Nc1cc[n+]([O-])cc1,le15,0,0,0,0
"Ethanone, 1-(1H-imidazol-1-yl)-",361.15,1,CC(=O)n1ccnc1,le15,0,0,0,0
"Benzene, 1-fluoro-2-methyl-",284.55,1,Cc1ccccc1F,le15,0,0,0,0
"Benzene, 1-fluoro-4-methyl-",285.05,1,Cc1ccc(F)cc1,le15,0,0,0,0
"Toluene, m-fluoro- (8CI)",282.55,1,Cc1cccc(F)c1,le15,0,0,0,0
fluoromethylbenzene,290.55,1,FCc1ccccc1,le15,0,0,0,0
dimethyl sulfite,303.15,1,COS(=O)OC,le15,0,0,0,0
3-Cyclohexene-1-carboxaldehyde,330.35,1,O=CC1CC=CCC1,le15,0,0,0,0
dicyclopropylmethanone,312.55,1,O=C(C1CC1)C1CC1,le15,0,0,0,0
3-methylcyclohex-2-en-1-one,341.45,1,CC1=CC(=O)CCC1,le15,0,0,0,0
Cyclohexenecarboxaldehyde,344.25,1,O=CC1=CCCCC1,le15,0,0,0,0
2-ethyl-5-methylfuran,288.25,1,CCc1ccc(C)o1,le15,0,0,0,0
2-propylfuran,287.95,1,CCCc1ccco1,le15,0,0,0,0
3-methylcyclohex-3-en-1-one,328.65,1,CC1=CCCC(=O)C1,le15,0,0,0,0
1-ethynylcyclopentan-1-ol,322.05,1,C#CC1(O)CCCC1,le15,0,0,0,0
2-ethyl-5-methyl-1H-imidazole,410.95,1,CCc1ncc(C)[nH]1,le15,0,0,0,0
"1,3,5-trimethylpyrazole",313.15,1,Cc1cc(C)n(C)n1,le15,0,0,0,0
Benzenethiol,323.75,1,Sc1ccccc1,le15,0,0,0,0
oct-1-yne,290.15,1,C#CCCCCCC,le15,0,0,0,0
ethenylcyclohexane,294.25,1,C=CC1CCCCC1,le15,0,0,0,0
"2,4-Hexadiene, 2,5-dimethyl-",298.15,1,CC(C)=CC=C(C)C,le15,0,0,0,0
cyclooctene,298.15,1,C1=CCCCCCC1,le15,0,0,0,0
ethylidenecyclohexane,297.05,1,CC=C1CCCCC1,le15,0,0,0,0
1-ethylcyclohexene,292.35,1,CCC1=CCCCC1,le15,0,0,0,0
1-methylcycloheptene,293.75,1,CC1=CCCCCC1,le15,0,0,0,0
"1,2-dimethylcyclohexene",289.95,1,CC1=C(C)CCCC1,le15,0,0,0,0
3-ethylcyclohexene,286.05,1,CCC1C=CCCC1,le15,0,0,0,0
oct-2-yne,297.25,1,CC#CCCCCC,le15,0,0,0,0
prop-2-enylcyclopentane,285.35,1,C=CCC1CCCC1,le15,0,0,0,0
"1,7-Octadiene",282.55,1,C=CCCCCC=C,le15,0,0,0,0
"(2E,6E)-octa-2,6-diene",286.85,1,C/C=C/CC/C=C/C,le15,0,0,0,0
"4,4-dimethylcyclohexene",275.85,1,CC1(C)CC=CCC1,le15,0,0,0,0
oct-3-yne,295.15,1,CCC#CCCCC,le15,0,0,0,0
2propenylcyclopentane,285.0,1,CC=CC1CCCC1,le15,0,0,0,0
4octyne,291.0,1,CCCC#CCCC,le15,0,0,0,0
Ethenylcyclohexane,295.0,1,C=CC1CCCCC1,le15,0,0,0,0
1-chloro-4-fluorobutane,283.05,1,FCCCCCl,le15,0,0,0,0
3chloro1propanethiol,316.0,1,SCCCCl,le15,0,0,0,0
"1-Propene, 2,3-dichloro-",283.15,1,C=C(Cl)CCl,le15,0,0,0,0
"1-Propene, 1,3-dichloro-",300.95,1,ClC=CCCl,le15,0,0,0,0
"Propene, 1,2-dichloro-",288.85,1,CC(Cl)=CCl,le15,0,0,0,0
"3,3-dichloroprop-1-ene",276.15,1,C=CC(Cl)Cl,le15,0,0,0,0
"1-Propene, 1,1-dichloro- (9CI)",273.75,1,CC=C(Cl)Cl,le15,0,0,0,0
"1-Propene, 1,3-dichloro-, (Z)- (9CI)",297.15,1,Cl/C=C\CCl,le15,0,0,0,0
"(E)-1,3-dichloroprop-1-ene",300.95,1,Cl/C=C/CCl,le15,0,0,0,0
"Aniline, o-fluoro- (8CI)",333.15,1,Nc1ccccc1F,le15,0,0,0,0
"Aniline, p-fluoro- (8CI)",351.05,1,Nc1ccc(F)cc1,le15,0,0,0,0
"Aniline, m-fluoro- (8CI)",350.35,1,Nc1cccc(F)c1,le15,0,0,0,0
1-Ethenyl-2-pyrrolidinone (9CI),367.05,1,C=CN1CCCC1=O,le15,0,0,0,0
"Propanenitrile, 3-(2-propenyloxy)- (9CI)",356.05,1,C=CCOCCC#N,le15,0,0,0,0
1-(furan-2-yl)-N-methylmethanamine,307.15,1,CNCc1ccco1,le15,0,0,0,0
"2,4,5-Trimethyloxazole",306.45,1,Cc1nc(C)c(C)o1,le15,0,0,0,0
1H-Imidazole-4-ethanamine,453.45,1,NCCc1c[nH]cn1,le15,0,0,0,0
Heptane-1-nitrile,333.65,1,CCCCCCC#N,le15,0,0,0,0
"2-Propyn-1-amine, N,N-diethyl-",429.15,1,C#CCN(CC)CC,le15,0,0,0,0
"1-Propyn-1-amine, N,N-diethyl- (9CI)",311.85,1,CC#CN(CC)CC,le15,0,0,0,0
Heptanenitrile,331.0,1,CCCCCCC#N,le15,0,0,0,0
"2-Propanone, 1,1,1-trifluoro-",243.15,1,CC(=O)C(F)(F)F,le15,0,0,0,0
"2,5-Furandione, 3-methyl-",374.15,1,CC1=CC(=O)OC1=O,le15,0,0,0,0
"3,6-Pyridazinedione, 1,2-dihydro-",515.55,1,O=c1ccc(=O)[nH][nH]1,le15,0,0,0,0
"4(1H)-Pyrimidinone, 6-hydroxy-",443.75,1,O=c1cc(O)[nH]cn1,le15,0,0,0,0
"Phenol, 2-fluoro-",319.85,1,Oc1ccccc1F,le15,0,0,0,0
"Phenol, 4-fluoro-",347.95,1,Oc1ccc(F)cc1,le15,0,0,0,0
3-fluorophenol,344.15,1,Oc1cccc(F)c1,le15,0,0,0,0
"2-Cyclopenten-1-one, 2-hydroxy-3-methyl-",373.85,1,CC1=C(O)C(=O)CC1,le15,0,0,0,0
"2H-Pyran-2-carboxaldehyde, 3,4-dihydro-",346.55,1,O=CC1CCC=CO1,le15,0,0,0,0
"1,3-Cyclohexanedione",358.85,1,O=C1CCCC(=O)C1,le15,0,0,0,0
"1,4-Cyclohexanedione",355.35,1,O=C1CCC(=O)CC1,le15,0,0,0,0
"1,2-Cyclohexanedione",357.15,1,O=C1CCCCC1=O,le15,0,0,0,0
"1,3-Butadien-1-ol, acetate",306.45,1,C=CC=COC(C)=O,le15,0,0,0,0
"2-Propyn-1-ol, propanoate",315.25,1,C#CCOC(=O)CC,le15,0,0,0,0
1-(furan-2-yl)ethanol,307.75,1,CC(O)c1ccco1,le15,0,0,0,0
ethyl but-2-ynoate,326.35,1,CC#CC(=O)OCC,le15,0,0,0,0
2-(methoxymethyl)furan,295.25,1,COCc1ccco1,le15,0,0,0,0
2-Thiophenecarboxaldehyde,350.95,1,O=Cc1cccs1,le15,0,0,0,0
"Guanidine, N'-cyano-N,N-dimethyl-",337.55,1,CN(C)C(=N)NC#N,le15,0,0,0,0
"Cyclohexanone, 2-methyl-",319.05,1,CC1CCCCC1=O,le15,0,0,0,0
"Cyclohexanone, 3-methyl-",321.15,1,CC1CCCC(=O)C1,le15,0,0,0,0
2-Heptyn-1-ol,351.15,1,CCCCC#CCO,le15,0,0,0,0
2-Methylenehexanal,306.45,1,C=C(C=O)CCCC,le15,0,0,0,0
"hepta-1,6-dien-4-ol",313.15,1,C=CCC(O)CC=C,le15,0,0,0,0
"5-Hexen-2-one, 5-methyl-",311.85,1,C=C(C)CCC(C)=O,le15,0,0,0,0
"2,5-dimethylcyclopentan-1-one",313.75,1,CC1CCC(C)C1=O,le15,0,0,0,0
"3-Hexen-2-one, 5-methyl-",320.65,1,CC(=O)C=CC(C)C,le15,0,0,0,0
1-cyclopentylethanone,320.15,1,CC(=O)C1CCCC1,le15,0,0,0,0
"3-Pentanol, 3-ethynyl-",310.95,1,C#CC(O)(CC)CC,le15,0,0,0,0
1-Heptyn-3-ol,323.95,1,C#CC(O)CCCC,le15,0,0,0,0
5-Methyl-1-hexyn-3-ol,323.25,1,C#CC(O)CC(C)C,le15,0,0,0,0
cycloheptanone,330.15,1,O=C1CCCCCC1,le15,0,0,0,0
"Cyclohexanone, 4-methyl-",319.05,1,CC1CCC(=O)CC1,le15,0,0,0,0
"1-Pentyn-3-ol, 3,4-dimethyl-",310.35,1,C#CC(C)(O)C(C)C,le15,0,0,0,0
cyclohexanecarbaldehyde,314.15,1,O=CC1CCCCC1,le15,0,0,0,0
(E)-hept-2-enal,326.85,1,CCCC/C=C/C=O,le15,0,0,0,0
"Ether, 2-butenyl propenyl",287.55,1,CC=CCOC=CC,le15,0,0,0,0
2methylcyclohexanone,321.0,1,CC1CCCCC1=O,le15,0,0,0,0
Cycloheptanone,358.0,1,O=C1CCCCCC1,le15,0,0,0,0
"1,4-Diazabicyclo(2.2.2)octane",335.35,1,C1CN2CCN1CC2,le15,0,0,0,0
"Hydrazine, 1,1-di-2-propenyl- (9CI)",327.15,1,C=CCN(N)CC=C,le15,0,0,0,0
"Hexanenitrile, 6-amino-",366.75,1,N#CCCCCCN,le15,0,0,0,0
"Acetonitrile, (diethylamino)-",327.05,1,CCN(CC)CC#N,le15,0,0,0,0
"2,3-dimethylthiophene",298.95,1,Cc1ccsc1C,le15,0,0,0,0
"2,4-dimethylthiophene",296.15,1,Cc1csc(C)c1,le15,0,0,0,0
2-ethylthiophene,294.25,1,CCc1cccs1,le15,0,0,0,0
"2,5-dimethylthiophene",297.05,1,Cc1ccc(C)s1,le15,0,0,0,0
3-ethylthiophene,295.95,1,CCc1ccsc1,le15,0,0,0,0
"1-Pentene, 2,4,4-trimethyl-",267.05,1,C=C(C)CC(C)(C)C,le15,0,0,0,0
(E)-oct-2-ene,289.75,1,C/C=C/CCCCC,le15,0,0,0,0
"2,3,4-trimethylpent-2-ene",285.95,1,CC(C)=C(C)C(C)C,le15,0,0,0,0
"1,1-dimethylcyclohexane",280.35,1,CC1(C)CCCCC1,le15,0,0,0,0
(E)-oct-4-ene,294.25,1,CCC/C=C/CCC,le15,0,0,0,0
"(1R,2R)-1-ethyl-2-methylcyclopentane",286.65,1,CC[C@@H]1CCC[C@H]1C,le15,0,0,0,0
"Heptane, 3-methylene-",283.55,1,C=C(CC)CCCC,le15,0,0,0,0
"(1R,3R)-1,3-dimethylcyclohexane",282.55,1,C[C@@H]1CCC[C@@H](C)C1,le15,0,0,0,0
"1,2,4-trimethylcyclopentane",282.35,1,CC1CC(C)C(C)C1,le15,0,0,0,0
3-ethylhex-1-ene,288.65,1,C=CC(CC)CCC,le15,0,0,0,0
3-methyl-4-methylidenehexane,279.85,1,C=C(CC)C(C)CC,le15,0,0,0,0
"3,3-dimethylhex-1-ene",283.85,1,C=CC(C)(C)CCC,le15,0,0,0,0
propan-2-ylcyclopentane,287.25,1,CC(C)C1CCCC1,le15,0,0,0,0
methylcycloheptane,293.05,1,CC1CCCCCC1,le15,0,0,0,0
"1,1,2-trimethylcyclopentane",279.55,1,CC1CCCC1(C)C,le15,0,0,0,0
(E)-4-methylhept-3-ene,282.35,1,CC/C=C(\C)CCC,le15,0,0,0,0
"1,1,3-trimethylcyclopentane",279.55,1,CC1CCC(C)(C)C1,le15,0,0,0,0
"2,3-dimethylhex-2-ene",288.75,1,CCCC(C)=C(C)C,le15,0,0,0,0
5-methylhept-1-ene,288.65,1,C=CCCC(C)CC,le15,0,0,0,0
(4R)-4-methylhept-1-ene,288.65,1,C=CC[C@H](C)CCC,le15,0,0,0,0
"3,4-dimethylhex-1-ene",283.85,1,C=CC(C)C(C)CC,le15,0,0,0,0
"2,3-dimethylhex-1-ene",279.85,1,C=C(C)C(C)CCC,le15,0,0,0,0
1-ethyl-1-methylcyclopentane,283.75,1,CCC1(C)CCCC1,le15,0,0,0,0
3-ethyl-2-methylpent-1-ene,279.85,1,C=C(C)C(CC)CC,le15,0,0,0,0
"(Z)-5,5-dimethylhex-2-ene",281.55,1,C/C=C\CC(C)(C)C,le15,0,0,0,0
"1,2-dimethylcyclohexane",288.75,1,CC1CCCCC1C,le15,0,0,0,0
1-ethyl-2-methylcyclopentane,286.65,1,CCC1CCCC1C,le15,0,0,0,0
"Cyclohexane, 1,2-dimethyl-, (1R,2S)-rel-",288.75,1,C[C@H]1CCCC[C@H]1C,le15,0,0,0,0
"1,4-dimethylcyclohexane",288.75,1,CC1CCC(C)CC1,le15,0,0,0,0
"1,2,3-trimethylcyclopentane",282.394,1,CC1CCC(C)C1C,le15,0,0,0,0
6-methylhept-1-ene,288.65,1,C=CCCCC(C)C,le15,0,0,0,0
trans-Oct-2-ene,294.25,1,C/C=C/CCCCC,le15,0,0,0,0
(E)-oct-3-ene,288.25,1,CC/C=C/CCCC,le15,0,0,0,0
"4,5-dimethylhex-1-ene",283.85,1,C=CCC(C)C(C)C,le15,0,0,0,0
1ethyl1methylcyclopentane,279.0,1,CCC1(C)CCCC1,le15,0,0,0,0
1octene,286.0,1,C=CCCCCCC,le15,0,0,0,0
2methyl1heptene,283.0,1,C=C(C)CCCCC,le15,0,0,0,0
2methyl2heptene,281.0,1,CCCCC=C(C)C,le15,0,0,0,0
Cyclooctane,301.0,1,C1CCCCCCC1,le15,0,0,0,0
(Z)-2-chlorobut-2-enedinitrile,341.55,1,N#C/C=C(\Cl)C#N,le15,0,0,0,0
"Acetyl chloride, chloro-",307.15,1,O=C(Cl)CCl,le15,0,0,0,0
"s-Triazine-2,4(1H,3H)-dione (8CI)",574.05,1,O=c1nc[nH]c(=O)[nH]1,le15,0,0,0,0
4-Nitro-1H-imidazole (9CI),471.75,1,O=[N+]([O-])c1c[nH]cn1,le15,0,0,0,0
"2,5-Pyrrolidinedione, 1-methyl-",379.05,1,CN1C(=O)CCC1=O,le15,0,0,0,0
methyl 3-cyanopropanoate,360.65,1,COC(=O)CCC#N,le15,0,0,0,0
Hexahydro-2H-azepin-2-one (9CI),409.85,1,O=C1CCCCCN1,le15,0,0,0,0
"2-Propenamide, N-(1-methylethyl)-",392.85,1,C=CC(=O)NC(C)C,le15,0,0,0,0
"2-Pyrrolidinone, 1-ethyl-",349.25,1,CCN1CCCC1=O,le15,0,0,0,0
"Acetamide, N-ethyl-N-vinyl-",345.65,1,C=CN(CC)C(C)=O,le15,0,0,0,0
"2H-Pyran-2-methanamine, 3,4-dihydro- (9CI)",343.65,1,NCC1CCC=CO1,le15,0,0,0,0
"Cyclohexanone, oxime",363.15,1,ON=C1CCCCC1,le15,0,0,0,0
1-Piperidinecarboxaldehyde,364.15,1,O=CN1CCCCC1,le15,0,0,0,0
3-methylpiperidin-2-one,411.75,1,CC1CCCNC1=O,le15,0,0,0,0
"1,5-dimethylpyrrolidin-2-one",362.55,1,CC1CCC(=O)N1C,le15,0,0,0,0
"2,4-dimethyl-1,3-thiazole",315.15,1,Cc1csc(C)n1,le15,0,0,0,0
"Thiazole, 4,5-dimethyl-",324.25,1,Cc1ncsc1C,le15,0,0,0,0
"Piperidine, 2,6-dimethyl-",284.15,1,CC1CCCC(C)N1,le15,0,0,0,0
"2,6-dimethylpiperidine",284.85,1,CC1CCCC(C)N1,le15,0,0,0,0
"Azocine, octahydro-",302.55,1,C1CCCNCCC1,le15,0,0,0,0
"3,3-dimethylpiperidine",305.35,1,CC1(C)CCCNC1,le15,0,0,0,0
cyclohexylmethanamine,316.45,1,NCC1CCCCC1,le15,0,0,0,0
4-ethylpiperidine,306.95,1,CCC1CCNCC1,le15,0,0,0,0
"3,5-dimethylpiperidine",305.15,1,CC1CNCC(C)C1,le15,0,0,0,0
"Cyclohexanamine, N-methyl-",302.55,1,CNC1CCCCC1,le15,0,0,0,0
1ethylpiperidine,291.0,1,CCN1CCCCC1,le15,0,0,0,0
Cyclohexanemethylamine,316.0,1,NCC1CCCCC1,le15,0,0,0,0
"Pyridine, 2-chloro-",338.15,1,Clc1ccccn1,le15,0,0,0,0
"Pyridine, 3-chloro-",338.15,1,Clc1cccnc1,le15,0,0,0,0
"Cyclobutenedione, dihydroxy- (8CI)",392.99,1,O=c1c(O)c(O)c1=O,le15,0,0,0,0
"2-Propanol, 1,1,1-trifluoro-",311.95,1,CC(O)C(F)(F)F,le15,0,0,0,0
"3,3,3-trifluoropropan-1-ol",320.25,1,OCCC(F)(F)F,le15,0,0,0,0
"Benzene, 1,3-difluoro- (9CI)",275.15,1,Fc1cccc(F)c1,le15,0,0,0,0
"Benzene, 1,4-difluoro- (9CI)",275.25,1,Fc1ccc(F)cc1,le15,0,0,0,0
"1,2-difluorobenzene",275.35,1,Fc1ccccc1F,le15,0,0,0,0
"2H-Pyran-2,6(3H)-dione, dihydro-",394.05,1,O=C1CCCC(=O)O1,le15,0,0,0,0
"3-methyloxolane-2,5-dione",381.35,1,CC1CC(=O)OC1=O,le15,0,0,0,0
"2H-1,2-Oxazine, 3,6-dihydro-2-nitroso-",303.45,1,O=NN1CC=CCO1,le15,0,0,0,0
5-(Aminomethyl)isoxazol-3-ol hydrate,423.55,1,NCc1cc(O)no1.O,le15,0,0,0,0
"Propane, 1-(allyloxy)-2,3-epoxy- (8CI)",330.35,1,C=CCOCC1CO1,le15,0,0,0,0
"2(3H)-Furanone, 5-ethyldihydro-",371.45,1,CCC1CCC(=O)O1,le15,0,0,0,0
methyl 3-methylbut-2-enoate,305.25,1,COC(=O)C=C(C)C,le15,0,0,0,0
propyl prop-2-enoate,299.25,1,C=CC(=O)OCCC,le15,0,0,0,0
"1,3-Dioxolane, 4-methyl-2-vinyl-",278.45,1,C=CC1OCC(C)O1,le15,0,0,0,0
"hexane-2,4-dione",326.75,1,CCC(=O)CC(C)=O,le15,0,0,0,0
"2,3-Hexanedione",301.15,1,CCCC(=O)C(C)=O,le15,0,0,0,0
"3,4-Hexanedione",305.95,1,CCC(=O)C(=O)CC,le15,0,0,0,0
"2H-Pyran, 3,4-dihydro-2-methoxy-",289.85,1,COC1CCC=CO1,le15,0,0,0,0
"Ethanone, 1-(3,3-dimethyloxiranyl)- (9CI)",308.45,1,CC(=O)C1OC1(C)C,le15,0,0,0,0
ethyl cyclopropanecarboxylate,302.85,1,CCOC(=O)C1CC1,le15,0,0,0,0
"2-Hexenoic acid, (2E)-",388.55,1,CCC/C=C/C(=O)O,le15,0,0,0,1
ethyl but-3-enoate,303.85,1,C=CCC(=O)OCC,le15,0,0,0,0
methyl (E)-2-methylbut-2-enoate,308.15,1,C/C=C(\C)C(=O)OC,le15,0,0,0,0
"2-Imidazolidinone, 1,3-dimethyl-",349.65,1,CN1CCN(C)C1=O,le15,0,0,0,0
"Piperidine, 1-nitroso-",365.95,1,O=NN1CCCCC1,le15,0,0,0,0
furan-2-ylmethanethiol,318.15,1,SCc1ccco1,le15,0,0,0,0
thiophen-2-ylmethanol,349.85,1,OCc1cccs1,le15,0,0,0,0
"2H-Imidazole-2-thione, 1,3-dihydro-1-methyl-",320.55,1,Cn1cc[nH]c1=S,le15,0,0,0,0
"2,5-dimethyl-1,3,4-thiadiazole",354.35,1,Cc1nnc(C)s1,le15,0,0,0,0
cyclohexylmethanol,344.25,1,OCC1CCCCC1,le15,0,0,0,0
4-methylhexan-2-one,304.15,1,CCC(C)CC(C)=O,le15,0,0,0,0
"2-Hexanone, 5-methyl-",314.25,1,CC(=O)CCC(C)C,le15,0,0,0,0
"2,2-dimethylpentan-3-one",295.55,1,CCC(=O)C(C)(C)C,le15,0,0,0,0
"4,4-dimethylpentan-2-one",292.05,1,CC(=O)CC(C)(C)C,le15,0,0,0,0
2-cyclopentylethanol,343.55,1,OCCC1CCCC1,le15,0,0,0,0
2-methylhexanal,305.75,1,CCCCC(C)C=O,le15,0,0,0,0
methoxycyclohexane,293.85,1,COC1CCCCC1,le15,0,0,0,0
3-methylhexan-2-one,304.15,1,CCCC(C)C(C)=O,le15,0,0,0,0