compound,flashpoint,pure substance,smiles,source,is_silicon,is_metallic,is_tin,is_acid
"3,3-dimethyl-4-propan-2-ylideneoxetan-2-one",335.95,1,CC(C)=C1OC(=O)C1(C)C,le15,0,0,0,0
"3-prop-2-enylpentane-2,4-dione",349.95,1,C=CCC(C(C)=O)C(C)=O,le15,0,0,0,0
Oct-2-ynoic acid,374.25,1,CCCCCC#CC(=O)O,le15,0,0,0,1
"4-Pentenoic acid, 2-(2-propenyl)- (9CI)",329.55,1,C=CCC(CC=C)C(=O)O,le15,0,0,0,1
"7-Oxabicyclo(4.1.0)heptane, 3-(epoxyethyl)-",359.55,1,C1CC2OC2CC1C1CO1,le15,0,0,0,0
"1,3-Cyclohexanedione, 5,5-dimethyl-",358.25,1,CC1(C)CC(=O)CC(=O)C1,le15,0,0,0,0
"4-Morpholineacetonitrile, alpha-methyl-",363.85,1,CC(C#N)N1CCOCC1,le15,0,0,0,0
methylsulfinylbenzene,390.95,1,CS(=O)c1ccccc1,le15,0,0,0,0
"Benzenethiol, 2-methoxy-",368.15,1,COc1ccccc1S,le15,0,0,0,0
3-methoxybenzenethiol,369.25,1,COc1cccc(S)c1,le15,0,0,0,0
"1,3,5,7-Tetraazatricyclo(3.3.1.13,7)decane",377.095,1,C1N2CN3CN1CN(C2)C3,le15,0,0,0,0
4-methoxybenzenethiol,362.95,1,COc1ccc(S)cc1,le15,0,0,0,0
"Propanenitrile, 3,3'-thiobis-",432.75,1,N#CCCSCCC#N,le15,0,0,0,0
"5-Heptenal, 2,6-dimethyl-",333.75,1,CC(C)=CCCC(C)C=O,le15,0,0,0,0
"3,3,5-trimethylcyclohexan-1-one",337.15,1,CC1CC(=O)CC(C)(C)C1,le15,0,0,0,0
1-cyclohexylpropan-1-one,347.65,1,CCC(=O)C1CCCCC1,le15,0,0,0,0
"2,4,4-trimethylcyclohexan-1-one",331.65,1,CC1CC(C)(C)CCC1=O,le15,0,0,0,0
Non-2-yn-1-ol,328.05,1,CCCCCCC#CCO,le15,0,0,0,0
2-Nonenal,357.55,1,CCCCCCC=CC=O,le15,0,0,0,0
2-butylthiophene,316.25,1,CCCCc1cccs1,le15,0,0,0,0
1-methyl-4-propan-2-ylcyclohexane,317.85,1,CC1CCC(C(C)C)CC1,le15,0,0,0,0
cyclodecane,331.931,1,C1CCCCCCCCC1,le15,0,0,0,0
butylcyclohexane,314.25,1,CCCCC1CCCCC1,le15,0,0,0,0
Isobutylcyclohexane,321.45,1,CC(C)CC1CCCCC1,le15,0,0,0,0
"Cyclohexane, 1,2,4,5-tetramethyl-",313.65,1,CC1CC(C)C(C)CC1C,le15,0,0,0,0
2-methylnon-1-ene,315.75,1,C=C(C)CCCCCCC,le15,0,0,0,0
tert-butylcyclohexane,315.35,1,CC(C)(C)C1CCCCC1,le15,0,0,0,0
"1,2,3,4-tetramethylcyclohexane",313.65,1,CC1CCC(C)C(C)C1C,le15,0,0,0,0
"2,6-dimethyloct-2-ene",305.15,1,CCC(C)CCC=C(C)C,le15,0,0,0,0
1-methyl-2-propylcyclohexane,320.85,1,CCCC1CCCCC1C,le15,0,0,0,0
1-methyl-3-propylcyclohexane,320.85,1,CCCC1CCCC(C)C1,le15,0,0,0,0
"3,7-dimethyloct-1-ene",316.95,1,C=CC(C)CCCC(C)C,le15,0,0,0,0
(E)-dec-5-ene,319.25,1,CCCC/C=C/CCCC,le15,0,0,0,0
1-methyl-3-propan-2-ylcyclohexane,317.85,1,CC1CCCC(C(C)C)C1,le15,0,0,0,0
"Cyclohexane, 1,1,3,5-tetramethyl-, trans-",311.25,1,C[C@H]1C[C@H](C)CC(C)(C)C1,le15,0,0,0,0
"Cyclohexane, 1,1,3,5-tetramethyl-, cis-",311.25,1,C[C@H]1C[C@@H](C)CC(C)(C)C1,le15,0,0,0,0
butan-2-ylcyclohexane,321.35,1,CCC(C)C1CCCCC1,le15,0,0,0,0
(Z)-dec-5-ene,318.65,1,CCCC/C=C\CCCC,le15,0,0,0,0
1decene,320.15,1,C=CCCCCCCCC,le15,0,0,0,0
2octene,287.0,1,CC=CCCCCC,le15,0,0,0,0
5decene,319.0,1,CCCCC=CCCCC,le15,0,0,0,0
Butylcyclohexane,314.0,1,CCCCC1CCCCC1,le15,0,0,0,0
Cyclodecane,338.0,1,C1CCCCCCCCC1,le15,0,0,0,0
tertButylCyclohexane,315.0,1,CC(C)(C)C1CCCCC1,le15,0,0,0,0
chloro(dimethyl)arsane,299.05,1,C[As](C)Cl,le15,0,1,0,0
ethyl 2-chloro-2-fluoroacetate,317.45,1,CCOC(=O)C(F)Cl,le15,0,0,0,0
"Benzaldehyde, 4-chloro-",360.92800000000005,1,O=Cc1ccc(Cl)cc1,le15,0,0,0,0
"Benzaldehyde, m-chloro- (8CI)",358.55,1,O=Cc1cccc(Cl)c1,le15,0,0,0,0
"Benzaldehyde, 2-chloro-",360.95,1,O=Cc1ccccc1Cl,le15,0,0,0,0
1-chloro-2-ethylbenzene,333.15,1,CCc1ccccc1Cl,le15,0,0,0,0
"1,3-Dimethyl-4-chlorobenzene",335.25,1,Cc1ccc(Cl)c(C)c1,le15,0,0,0,0
"2-chloro-1,4-dimethylbenzene",330.35,1,Cc1ccc(C)c(Cl)c1,le15,0,0,0,0
"Benzene, 1-(chloromethyl)-4-methyl-",348.75,1,Cc1ccc(CCl)cc1,le15,0,0,0,0
1-(chloromethyl)-2-methylbenzene,349.15,1,Cc1ccccc1CCl,le15,0,0,0,0
"1,2-Dimethyl-3-chlorobenzene",336.75,1,Cc1cccc(Cl)c1C,le15,0,0,0,0
"4-chloro-1,2-dimethylbenzene",340.15,1,Cc1ccc(Cl)cc1C,le15,0,0,0,0
1-(chloromethyl)-3-methylbenzene,348.75,1,Cc1cccc(CCl)c1,le15,0,0,0,0
1-chloro-2-ethylbenzene,339.15,1,CCc1ccccc1Cl,le15,0,0,0,0
"2-chloro-1,3-dimethylbenzene",336.45,1,Cc1cccc(C)c1Cl,le15,0,0,0,0
1-bromo-3-fluoropropane,289.55,1,FCCCBr,le15,0,0,0,0
"Butane, 1,4-dichloro-2,3-epoxy-",406.65,1,ClCC1OC1CCl,le15,0,0,0,0
"1,3-dichlorobutan-2-one",332.15,1,CC(Cl)C(=O)CCl,le15,0,0,0,0
4-chlorobutanoyl chloride,343.35,1,O=C(Cl)CCCCl,le15,0,0,0,0
"1,1-dichloro-3-methylbutane",304.75,1,CC(C)CC(Cl)Cl,le15,0,0,0,0
"2,4-dichloropentane",309.65,1,CC(Cl)CC(C)Cl,le15,0,0,0,0
"1,2-dichloropentane",315.55,1,CCCC(Cl)CCl,le15,0,0,0,0
"1,2-dichloro-2-methylbutane",308.95,1,CCC(C)(Cl)CCl,le15,0,0,0,0
"2,3-dichloro-2-methylbutane",302.65,1,CC(Cl)C(C)(C)Cl,le15,0,0,0,0
"Silane, dichloroethenylmethyl-",277.55,1,C[SiH2]C=C(Cl)Cl,le15,1,1,0,0
"5-Furancarboxaldehyde, 5-nitro- (9CI)",306.15,1,O=CC1([N+](=O)[O-])C=CCO1,le15,0,0,0,0
"Benzene, 1-fluoro-4-nitro-",356.45,1,O=[N+]([O-])c1ccc(F)cc1,le15,0,0,0,0
"Benzene, 1-fluoro-3-nitro- (8CI)(9CI)",349.85,1,O=[N+]([O-])c1cccc(F)c1,le15,0,0,0,0
"Benzene, 1-fluoro-2-nitro-",367.15,1,O=[N+]([O-])c1ccccc1F,le15,0,0,0,0
"1H-Imidazole, 1,2-dimethyl-5-nitro- (9CI)",416.65,1,Cc1ncc([N+](=O)[O-])n1C,le15,0,0,0,0
"2,5-Pyrrolidinedione, 3-ethyl-3-methyl-",396.95,1,CCC1(C)CC(=O)NC1=O,le15,0,0,0,0
1-acetylpiperidin-4-one,361.05,1,CC(=O)N1CCC(=O)CC1,le15,0,0,0,0
"Acetic acid, cyano-, butyl ester",364.15,1,CCCCOC(=O)CC#N,le15,0,0,0,1
8-methyl-8-azabicyclo[3.2.1]octan-3-ol,385.65,1,CN1C2CCC1CC(O)C2,le15,0,0,0,0
1-piperidin-2-ylpropan-2-one,347.45,1,CC(=O)CC1CCCCN1,le15,0,0,0,0
1-(3-methylpiperidin-1-yl)ethanone,379.85,1,CC(=O)N1CCCC(C)C1,le15,0,0,0,0
isothiocyanatocyclohexane,368.75,1,S=C=NC1CCCCC1,le15,0,0,0,0
1-cyclopentyl-N-methylpropan-2-amine,318.65,1,CNC(C)CC1CCCC1,le15,0,0,0,0
"2,2,6,6-tetramethylpiperidine",297.55,1,CC1(C)CCCC(C)(C)N1,le15,0,0,0,0
1-butylpiperidine,332.95,1,CCCCN1CCCCC1,le15,0,0,0,0
"Cyclohexanemethylamine, N,N-dimethyl- (6CI,7CI,8CI)",313.85,1,CN(C)CC1CCCCC1,le15,0,0,0,0
"N,6-dimethylhept-5-en-2-amine",319.45,1,CNC(C)CCC=C(C)C,le15,0,0,0,0
N-(oxomethylidene)sulfamoyl chloride,291.65,1,O=C=NS(=O)(=O)Cl,le15,0,0,0,0
"Benzenamine, 3-chloro-2-methyl-",385.95,1,Cc1c(N)cccc1Cl,le15,0,0,0,0
"Benzenamine, 6-chloro-2-methyl- (9CI)",372.05,1,Cc1cccc(Cl)c1N,le15,0,0,0,0
"Benzenamine, 4-chloro-2-methyl-",372.55,1,Cc1cc(Cl)ccc1N,le15,0,0,0,0
"Benzenamine, 3-chloro-4-methyl-",373.95,1,Cc1ccc(N)cc1Cl,le15,0,0,0,0
"Benzenamine, 5-chloro-2-methyl-",433.15,1,Cc1ccc(Cl)cc1N,le15,0,0,0,0
2-Chloro-5-methylaniline,380.15,1,Cc1ccc(Cl)c(N)c1,le15,0,0,0,0
"Benzylamine, p-chloro- (8CI)",365.75,1,NCc1ccc(Cl)cc1,le15,0,0,0,0
"Benzenamine, 2-chloro-4-methyl-",372.15,1,Cc1ccc(N)c(Cl)c1,le15,0,0,0,0
4-chloro-N-methylaniline,372.55,1,CNc1ccc(Cl)cc1,le15,0,0,0,0
4-chloro-3-methylaniline,372.95,1,Cc1cc(N)ccc1Cl,le15,0,0,0,0
"Methane, iodo-",280.948,1,CI,le15,0,0,0,0
"Ethanamine, 2-chloro-N-(2-chloroethyl)- (9CI)",350.45,1,ClCCNCCCl,le15,0,0,0,0
"Acetic acid, trifluoro-, ethyl ester",272.15,1,CCOC(=O)C(F)(F)F,le15,0,0,0,1
"Phosphinic acid, phenyl-",399.381,1,O=[PH](O)c1ccccc1,le15,0,0,0,1
"4H-Pyran-4-one, 5-hydroxy-2-(hydroxymethyl)-",453.05,1,O=c1cc(CO)occ1O,le15,0,0,0,0
"Hexa-2,4-dienedioic acid",450.05,1,O=C(O)C=CC=CC(=O)O,le15,0,0,0,1
"Phosphorothioic acid, O,O-dimethyl ester",331.25,1,COP([O-])(=S)OC,le15,0,0,0,1
"2-Propenoic acid, 2-methyl-, oxiranylmethyl ester",349.26099999999997,1,C=C(C)C(=O)OCC1CO1,le15,0,0,0,1
prop-2-enyl 3-oxobutanoate,348.15,1,C=CCOC(=O)CC(C)=O,le15,0,0,0,0
bis(prop-2-enyl) carbonate,332.05,1,C=CCOC(=O)OCC=C,le15,0,0,0,0
"4(1H)-Pyrimidinone, 2,3-dihydro-6-methyl-2-thioxo-",433.95,1,Cc1cc(=O)[nH]c(=S)[nH]1,le15,0,0,0,0
1methylnaphthalene,355.0,1,Cc1cccc2ccccc12,le15,0,0,0,0
2methylnaphthalene,370.0,1,Cc1ccc2ccccc2c1,le15,0,0,0,0
"2-Propenoic acid, 2-methyl-, 2-methylpropyl ester",319.15,1,C=C(C)C(=O)OCC(C)C,le15,0,0,0,1
"2-Propenoic acid, 2-methyl-, butyl ester",323.75,1,C=C(C)C(=O)OCCCC,le15,0,0,0,1
"2(3H)-Furanone, dihydro-5-butyl-",365.05,1,CCCCC1CCC(=O)O1,le15,0,0,0,0
"3-Hexyne-2,5-diol, 2,5-dimethyl-",359.15,1,CC(C)(O)C#CC(C)(C)O,le15,0,0,0,0
"2-Propenoic acid, 2-methyl-, 1,1-dimethylethyl ester",314.25,1,C=C(C)C(=O)OC(C)(C)C,le15,0,0,0,1
"2H-Pyran-2-one, tetrahydro-6-propyl-",398.15,1,CCCC1CCCC(=O)O1,le15,0,0,0,0
1-methylcyclohexane-1-carboxylic acid,387.15,1,CC1(C(=O)O)CCCCC1,le15,0,0,0,1
1-(1-hydroxycyclohexyl)ethanone,369.05,1,CC(=O)C1(O)CCCCC1,le15,0,0,0,0
ethyl (E)-hex-2-enoate,335.45,1,CCC/C=C/C(=O)OCC,le15,0,0,0,0
"Cyclohex-2-ene-1,1-dimethanol",378.15,1,OCC1(CO)C=CCCC1,le15,0,0,0,0
"Oxirane, 2,2'-(1,4-butanediyl)bis- (9CI)",370.95,1,C(CCC1CO1)CC1CO1,le15,0,0,0,0
"2-Hexen-1-ol, acetate, (2E)-",331.15,1,CCC/C=C/COC(C)=O,le15,0,0,0,0
"2-Propenoic acid, pentyl ester",321.35,1,C=CC(=O)OCCCCC,le15,0,0,0,1
"3-Hexen-1-ol, acetate, (3Z)-",330.35,1,CC/C=C\CCOC(C)=O,le15,0,0,0,0
"Cyclohexanecarboxylic acid, methyl ester",331.85,1,COC(=O)C1CCCCC1,le15,0,0,0,1
2-cyclohexylacetic acid,397.05,1,O=C(O)CC1CCCCC1,le15,0,0,0,1
"2-Hexenoic acid, 2-ethyl-",594.05,1,CCCC=C(CC)C(=O)O,le15,0,0,0,1
"octane-4,5-dione",329.65,1,CCCC(=O)C(=O)CCC,le15,0,0,0,0
"2-Butenoic acid, 2-methyl-, 1-methylethyl ester, (E)- (9CI)",328.05,1,C/C=C(\C)C(=O)OC(C)C,le15,0,0,0,1
ethyl (E)-hex-3-enoate,332.55,1,CC/C=C/CC(=O)OCC,le15,0,0,0,0
"2,5-dimethylhexane-3,4-dione",323.65,1,CC(C)C(=O)C(=O)C(C)C,le15,0,0,0,0
"Urea, (1-methylcyclopentyl)-",360.95,1,CC1(NC(N)=O)CCCC1,le15,0,0,0,0
"benzene-1,2-dithiol",385.85,1,Sc1ccccc1S,le15,0,0,0,0
"benzene-1,2-dithiol",381.75,1,Sc1ccccc1S,le15,0,0,0,0
"4-Heptanone, 2,6-dimethyl-",317.85,1,CC(C)CC(=O)CC(C)C,le15,0,0,0,0
"Cyclohexanol, 3,3,5-trimethyl-",354.15,1,CC1CC(O)CC(C)(C)C1,le15,0,0,0,0
"2,2,4,4-tetramethylpentan-3-one",305.95,1,CC(C)(C)C(=O)C(C)(C)C,le15,0,0,0,0
nonan-3-one,340.95,1,CCCCCCC(=O)CC,le15,0,0,0,0
nonan-4-one,334.55,1,CCCCCC(=O)CCC,le15,0,0,0,0
"Cyclohexanol, 4-(1-methylethyl)-",353.95,1,CC(C)C1CCC(O)CC1,le15,0,0,0,0
"Hexanal, 3,5,5-trimethyl-",319.85,1,CC(CC=O)CC(C)(C)C,le15,0,0,0,0
"5-Hepten-2-ol, 2,6-dimethyl-",363.25,1,CC(C)=CCCC(C)(C)O,le15,0,0,0,0
"(3S,5S)-3,5-dimethylheptan-4-one",317.85,1,CC[C@H](C)C(=O)[C@@H](C)CC,le15,0,0,0,0
7-methyloctan-4-one,330.75,1,CCCC(=O)CCC(C)C,le15,0,0,0,0
non-1-en-3-ol,342.65,1,C=CC(O)CCCCCC,le15,0,0,0,0
"3,3,5-trimethylcyclohexan-1-ol",346.35,1,CC1CC(O)CC(C)(C)C1,le15,0,0,0,0
"Cyclohexanol, 3,3,5-trimethyl-, (1R,5R)-rel-",361.15,1,C[C@H]1C[C@@H](O)CC(C)(C)C1,le15,0,0,0,0
5nonanone,333.0,1,CCCCC(=O)CCCC,le15,0,0,0,0
Diisobutylketone,322.0,1,CC(C)CC(=O)CC(C)C,le15,0,0,0,0
"1,3-Cyclohexanebis(methylamine) (8CI)",379.15,1,NCC1CCCC(CN)C1,le15,0,0,0,0
"Octane, 2,7-dimethyl-",354.45,1,CC(C)CCCCC(C)C,le15,0,0,0,0
"2,5,5-trimethylheptane",312.85,1,CCC(C)(C)CCC(C)C,le15,0,0,0,0
"2,4,6-trimethylheptane",310.25,1,CC(C)CC(C)CC(C)C,le15,0,0,0,0
4-propylheptane,308.35,1,CCCC(CCC)CCC,le15,0,0,0,0
"2,4,4-trimethylheptane",311.65,1,CCCC(C)(C)CC(C)C,le15,0,0,0,0
"2,4-dimethyloctane",351.65,1,CCCCC(C)CC(C)C,le15,0,0,0,0
"3,3-dimethyloctane",316.65,1,CCCCCC(C)(C)CC,le15,0,0,0,0
5-ethyl-2-methylheptane,355.15,1,CCC(CC)CCC(C)C,le15,0,0,0,0
"2,2,3,3-tetramethylhexane",316.85,1,CCCC(C)(C)C(C)(C)C,le15,0,0,0,0
3-ethyl-2-methylheptane,358.05,1,CCCCC(CC)C(C)C,le15,0,0,0,0
5-methylnonane,310.35,1,CCCCC(C)CCCC,le15,0,0,0,0
"2,2-Dimethyloctane",314.05,1,CCCCCCC(C)(C)C,le15,0,0,0,0
"3,4-dimethyloctane",359.65,1,CCCCC(C)C(C)CC,le15,0,0,0,0
"3,5-dimethyloctane",354.15,1,CCCC(C)CC(C)CC,le15,0,0,0,0
"3,6-dimethyloctane",356.65,1,CCC(C)CCC(C)CC,le15,0,0,0,0
"4,5-dimethyloctane",359.05,1,CCCC(C)C(C)CCC,le15,0,0,0,0
"2,2,4,5-tetramethylhexane",309.55,1,CC(C)C(C)CC(C)(C)C,le15,0,0,0,0
3-ethyl-3-methylheptane,318.35,1,CCCCC(C)(CC)CC,le15,0,0,0,0
"3,4-diethylhexane",358.95,1,CCC(CC)C(CC)CC,le15,0,0,0,0
"2,4,5-trimethylheptane",313.85,1,CCC(C)C(C)CC(C)C,le15,0,0,0,0
"3,3,4-trimethylheptane",317.55,1,CCCC(C)C(C)(C)CC,le15,0,0,0,0
3-ethyl-5-methylheptane,355.85,1,CCC(C)CC(CC)CC,le15,0,0,0,0
"2,2,5,5-tetramethylhexane",304.75,1,CC(C)(C)CCC(C)(C)C,le15,0,0,0,0
"2,6-dimethyloctane",355.55,1,CCC(C)CCCC(C)C,le15,0,0,0,0
"4,4-dimethyloctane",314.95,1,CCCCC(C)(C)CCC,le15,0,0,0,0
4methylnonane,311.0,1,CCCCCC(C)CCC,le15,0,0,0,0
"p-Benzoquinone, 2-chloro- (8CI)",356.35,1,O=C1C=CC(=O)C(Cl)=C1,le15,0,0,0,0
"Phenol, 4-chloro-3-methyl-",366.55,1,Cc1cc(O)ccc1Cl,le15,0,0,0,0
2-chloro-6-methylphenol,348.15,1,Cc1cccc(Cl)c1O,le15,0,0,0,0
"Phenol, 2-chloro-5-methyl-",354.15,1,Cc1ccc(Cl)c(O)c1,le15,0,0,0,0
"Anisole, p-chloro- (8CI)",345.45,1,COc1ccc(Cl)cc1,le15,0,0,0,0
1-chloro-2-methoxybenzene,349.15,1,COc1ccccc1Cl,le15,0,0,0,0
"Benzenemethanol, 4-chloro- (9CI)",343.15,1,OCc1ccc(Cl)cc1,le15,0,0,0,0
"Phenol, 4-chloro-2-methyl-",363.25,1,Cc1cc(Cl)ccc1O,le15,0,0,0,0
3-chloro-2-methylphenol,357.95,1,Cc1c(O)cccc1Cl,le15,0,0,0,0
(2-chlorophenyl)methanol,368.55,1,OCc1ccccc1Cl,le15,0,0,0,0
2-chloro-3-methylphenol,351.25,1,Cc1cccc(O)c1Cl,le15,0,0,0,0
3-chloro-4-methylphenol,361.65,1,Cc1ccc(O)cc1Cl,le15,0,0,0,0
3-Chlorobenzyl alcohol,368.55,1,OCc1cccc(Cl)c1,le15,0,0,0,0
1-chloro-3-methoxybenzene,346.45,1,COc1cccc(Cl)c1,le15,0,0,0,0
2-chloro-4-methylphenol,359.25,1,Cc1ccc(O)c(Cl)c1,le15,0,0,0,0
"1,2-Benzenediamine, 4-chloro-",408.55,1,Nc1ccc(Cl)cc1N,le15,0,0,0,0
"1,3-Benzenediamine, 4-chloro-",407.55,1,Nc1ccc(Cl)c(N)c1,le15,0,0,0,0
chloro(phenyl)silicon,327.05,1,Cl[Si]c1ccccc1,le15,1,1,0,0
"Carbonochloridic acid, 2-chloroethyl ester",343.15,1,O=C(Cl)OCCCl,le15,0,0,0,1
"Propanoic acid, 2,3-dichloro- (9CI)",358.95,1,O=C(O)C(Cl)CCl,le15,0,0,0,1
"1,2-dichloro-1-ethoxyethane",316.45,1,CCOC(Cl)CCl,le15,0,0,0,0
chloro-(chloromethyl)-dimethylsilane,295.15,1,C[Si](C)(Cl)CCl,le15,1,1,0,0
"2,4-Oxazolidinedione, 3,5,5-trimethyl-",321.15,1,CN1C(=O)OC(C)(C)C1=O,le15,0,0,0,0
2-Naphthalenamine,430.25,1,Nc1ccc2ccccc2c1,le15,0,0,0,0
"Quinoline, 6-methyl-",382.15,1,Cc1ccc2ncccc2c1,le15,0,0,0,0
"Quinoline, 8-methyl-",377.15,1,Cc1cccc2cccnc12,le15,0,0,0,0
"Quinoline, 7-methyl-",383.15,1,Cc1ccc2cccnc2c1,le15,0,0,0,0
1-phenylpyrrole,368.45,1,c1ccc(-n2cccc2)cc1,le15,0,0,0,0
3-methylisoquinoline,379.85,1,Cc1cc2ccccc2cn1,le15,0,0,0,0
1-methylisoquinoline,379.85,1,Cc1nccc2ccccc12,le15,0,0,0,0
2-phenyl-1H-pyrrole,397.75,1,c1ccc(-c2ccc[nH]2)cc1,le15,0,0,0,0
"Quinoline, 5-methyl-",377.55,1,Cc1cccc2ncccc12,le15,0,0,0,0
6-methylisoquinoline,385.45,1,Cc1ccc2cnccc2c1,le15,0,0,0,0
"Quinoline, 2-methyl-",352.55,1,Cc1ccc2ccccc2n1,le15,0,0,0,0
1-Naphthalenamine,425.25,1,Nc1cccc2ccccc12,le15,0,0,0,0
"Quinoline, 4-methyl-",379.25,1,Cc1ccnc2ccccc12,le15,0,0,0,0
"Acrylic acid, 3-(dimethylamino)-, ethyl ester, (E)-",342.05,1,CCOC(=O)/C=C/N(C)C,le15,0,0,0,1
"2-Propenoic acid, 2-(dimethylamino)ethyl ester",302.15,1,C=CC(=O)OCCN(C)C,le15,0,0,0,1
"N,N-diethylbutanamide",351.35,1,CCCC(=O)N(CC)CC,le15,0,0,0,0
"N,N-dipropylacetamide",351.35,1,CCCN(CCC)C(C)=O,le15,0,0,0,0
"Ethanol, 2-(cyclohexylamino)-",390.75,1,OCCNC1CCCCC1,le15,0,0,0,0
"Pentanamide, 2-ethyl-3-methyl-",392.95,1,CCC(C)C(CC)C(N)=O,le15,0,0,0,0
4-Isobutylmorpholine,322.95,1,CC(C)CN1CCOCC1,le15,0,0,0,0
1-piperidin-2-ylpropan-1-ol,355.45,1,CCC(O)C1CCCCN1,le15,0,0,0,0
"Morpholine, 4-butyl-",325.05,1,CCCCN1CCOCC1,le15,0,0,0,0
"Valeramide, 2-propyl-",393.05,1,CCCC(CCC)C(N)=O,le15,0,0,0,0
"Hexane, 1-isothiocyanato-",363.75,1,CCCCCCN=C=S,le15,0,0,0,0
"1-Propanamine, N,N-dipropyl-",309.85,1,CCCN(CCC)CCC,le15,0,0,0,0
"1-Butanamine, N-butyl-N-methyl-",315.35,1,CCCCN(C)CCCC,le15,0,0,0,0
"Ethane, 1-bromo-2-chloro-",282.65,1,ClCCBr,le15,0,0,0,0
"Hydroxylamine, N-(p-chlorophenyl)- (8CI)",379.15,1,ONc1ccc(Cl)cc1,le15,0,0,0,0
2-chloro-6-methoxypyridine,349.25,1,COc1cccc(Cl)n1,le15,0,0,0,0
"2-Pyrimidinamine, 4-chloro-6-methyl- (9CI)",424.15,1,Cc1cc(Cl)nc(N)n1,le15,0,0,0,0
"Ethane, 1,1-dichloro-1-nitro-",304.85,1,CC(Cl)(Cl)[N+](=O)[O-],le15,0,0,0,0
"p-Dioxane-2,5-dione, 3,6-dimethyl- (8CI)",423.75,1,CC1OC(=O)C(C)OC1=O,le15,0,0,0,0
"Piperazine, 1,4-dinitroso-",472.55,1,O=NN1CCN(N=O)CC1,le15,0,0,0,0
"4,6(1H,5H)-Pyrimidinedione, dihydro-2-thioxo-",507.15,1,O=C1CC(=O)NC(=S)N1,le15,0,0,0,0
1-Naphthalenol,417.15,1,Oc1cccc2ccccc12,le15,0,0,0,0
"2-Propenoic acid, 2-ethoxyethyl ester",325.95,1,C=CC(=O)OCCOCC,le15,0,0,0,1
"Pentanoic acid, 4-oxo-, ethyl ester",351.05,1,CCOC(=O)CCC(C)=O,le15,0,0,0,1
propan-2-yl 3-oxobutanoate,342.05,1,CC(=O)CC(=O)OC(C)C,le15,0,0,0,0
"Quinoline, 8-amino-",444.65,1,Nc1cccc2cccnc12,le15,0,0,0,0
"Quinoline, 6-amino- (8CI)",455.05,1,Nc1ccc2ncccc2c1,le15,0,0,0,0
"Quinoline, 3-amino-",440.95,1,Nc1cnc2ccccc2c1,le15,0,0,0,0
7-Quinolinamine (9CI),449.25,1,Nc1ccc2cccnc2c1,le15,0,0,0,0
"Quinoline, 2-amino-",436.75,1,Nc1ccc2ccccc2n1,le15,0,0,0,0
ethyl 2-methyl-3-oxobutanoate,335.15,1,CCOC(=O)C(C)C(C)=O,le15,0,0,0,0
quinolin-5-amine,444.65,1,Nc1cccc2ncccc12,le15,0,0,0,0
oxolan-2-ylmethyl acetate,357.55,1,CC(=O)OCC1CCCO1,le15,0,0,0,0
2-phenyl-1H-imidazole,453.55,1,c1ccc(-c2ncc[nH]2)cc1,le15,0,0,0,0
"2-Pentanone, 5-(acetyloxy)- (9CI)",358.55,1,CC(=O)CCCOC(C)=O,le15,0,0,0,0
ethyl 2-oxopentanoate,344.55,1,CCCC(=O)C(=O)OCC,le15,0,0,0,0
4-Aminoquinoline,454.35,1,Nc1ccnc2ccccc12,le15,0,0,0,0
2-hydroxypropyl 2-methylprop-2-enoate,360.05,1,C=C(C)C(=O)OCC(C)O,le15,0,0,0,0
1-phenylimidazole,393.85,1,c1ccc(-n2ccnc2)cc1,le15,0,0,0,0
"Quinoxaline, 2-methyl-",380.15,1,Cc1cnc2ccccc2n1,le15,0,0,0,0
methyl 2-ethyl-3-oxobutanoate,369.25,1,CCC(C(C)=O)C(=O)OC,le15,0,0,0,0
"1-Hexanol, 2,3-epoxy-2-ethyl-",347.05,1,CCCC1OC1(CC)CO,le15,0,0,0,0
"Isobutyric acid, butyl ester (6CI,7CI,8CI)",319.85,1,CCCCOC(=O)C(C)C,le15,0,0,0,1
"Pentanoic acid, 2-propyl-",384.15,1,CCCC(CCC)C(=O)O,le15,0,0,0,1
"Heptanoic acid, methyl ester",325.15,1,CCCCCCC(=O)OC,le15,0,0,0,1
"2-Pentanol, 4-methyl-, acetate",318.15,1,CC(=O)OC(C)CC(C)C,le15,0,0,0,0
"Butanoic acid, butyl ester",322.55,1,CCCCOC(=O)CCC,le15,0,0,0,1
heptyl formate,333.15,1,CCCCCCCOC=O,le15,0,0,0,0
"Hexanoic acid, ethyl ester",322.55,1,CCCCCC(=O)OCC,le15,0,0,0,1
Octanoic acid,380.529,1,CCCCCCCC(=O)O,le15,0,0,0,1
"Hexanoic acid, 2-ethyl-",389.75,1,CCCCC(CC)C(=O)O,le15,0,0,0,1
propyl 3-methylbutanoate,319.85,1,CCCOC(=O)CC(C)C,le15,0,0,0,0
2-Ethoxycyclohexan-1-ol,353.55,1,CCOC1CCCCC1O,le15,0,0,0,0
"Ethane, 1,2-diisothiocyanato- (9CI)",395.15,1,S=C=NCCN=C=S,le15,0,0,0,0
[3-(hydroxymethyl)cyclohexyl]methanol,404.65,1,OCC1CCCC(CO)C1,le15,0,0,0,0
"Butane, 1-(2-(ethenyloxy)ethoxy)- (9CI)",315.05,1,C=COCCOCCCC,le15,0,0,0,0
"1,1-diethoxybut-2-ene",312.05,1,CC=CC(OCC)OCC,le15,0,0,0,0
propan-2-yl 3-methylbutanoate,307.85,1,CC(C)CC(=O)OC(C)C,le15,0,0,0,0
"Propanoic acid, 2-methyl-, 2-methylpropyl ester",307.85,1,CC(C)COC(=O)C(C)C,le15,0,0,0,1
"Valeric acid, propyl ester (8CI)",325.55,1,CCCCC(=O)OCCC,le15,0,0,0,1
"Acetic acid, hexyl ester",310.35,1,CCCCCCOC(C)=O,le15,0,0,0,1
"Butanoic acid, 2-methylpropyl ester",318.75,1,CCCC(=O)OCC(C)C,le15,0,0,0,1
"Acetic acid, 2-ethylbutyl ester",325.95,1,CCC(CC)COC(C)=O,le15,0,0,0,1
ethyl 4-methylpentanoate,319.85,1,CCOC(=O)CCC(C)C,le15,0,0,0,0
Methylheptanoate,325.0,1,CCCCCCC(=O)OC,le15,0,0,0,0
"Morpholine, 4-(3-aminopropyl)- (8CI)",371.15,1,NCCCN1CCOCC1,le15,0,0,0,0
"1,3-dipropylurea",395.45,1,CCCNC(=O)NCCC,le15,0,0,0,0
4-ethylheptan-4-ol,344.25,1,CCCC(O)(CC)CCC,le15,0,0,0,0
nonan-5-ol,352.65,1,CCCCC(O)CCCC,le15,0,0,0,0
2-methyloctan-2-ol,344.25,1,CCCCCCC(C)(C)O,le15,0,0,0,0
"3,6-dimethylheptan-3-ol",343.15,1,CCC(C)(O)CCC(C)C,le15,0,0,0,0
"3,5,5-trimethylhexan-1-ol",353.15,1,CC(CCO)CC(C)(C)C,le15,0,0,0,0
3-ethylheptan-1-ol,352.65,1,CCCCC(CC)CCO,le15,0,0,0,0
"3-Octanol, 3-methyl-",344.25,1,CCCCCC(C)(O)CC,le15,0,0,0,0
"2,2,3-trimethylhexan-3-ol",331.05,1,CCCC(C)(O)C(C)(C)C,le15,0,0,0,0
"2-Heptanol, 2,6-dimethyl-",336.15,1,CC(C)CCCC(C)(C)O,le15,0,0,0,0
"2,6-dimethylheptan-3-ol",342.95,1,CC(C)CCC(O)C(C)C,le15,0,0,0,0
"2,4-dimethylheptan-4-ol",343.15,1,CCCC(C)(O)CC(C)C,le15,0,0,0,0
"3,5-dimethylheptan-4-ol",342.95,1,CCC(C)C(O)C(C)CC,le15,0,0,0,0
4-methyloctan-4-ol,344.25,1,CCCCC(C)(O)CCC,le15,0,0,0,0
"4-Heptanol, 2,6-dimethyl-",339.15,1,CC(C)CC(O)CC(C)C,le15,0,0,0,0
Nonyl alcohol,370.92800000000005,1,CCCCCCCCCO,le15,0,0,0,0
"1-Octanol, 7-methyl-",352.65,1,CC(C)CCCCCCO,le15,0,0,0,0
"N,N,N',N',1-Pentamethyltrimethylenediamine",313.75,1,CC(CCN(C)C)N(C)C,le15,0,0,0,0
"octane-1,8-diamine",438.15,1,NCCCCCCCCN,le15,0,0,0,0
"Hydrazine, 1-(1,5-dimethylhexyl)-",373.35,1,CC(C)CCCC(C)NN,le15,0,0,0,0