compound,flashpoint,pure substance,smiles,source,is_silicon,is_metallic,is_tin,is_acid
"Benzimidazole, 5-chloro-2-(trifluoromethyl)-",409.05,1,FC(F)(F)c1nc2ccc(Cl)cc2[nH]1,le15,0,0,0,0
bromo(iodo)methane,306.95,1,BrCI,le15,0,0,0,0
"Phosphoric acid, 2,2-dichloroethenyl dimethyl ester",287.85,1,COP(=O)(OC)OC=C(Cl)Cl,le15,0,0,0,1
"Acetic acid, (2,4-dichlorophenoxy)-",435.95,1,O=C(O)COc1ccc(Cl)cc1Cl,le15,0,0,0,1
"Benzoic acid, 3,6-dichloro-2-methoxy-",424.15,1,COc1c(Cl)ccc(Cl)c1C(=O)O,le15,0,0,0,1
"Thiourea, (2,5-dichlorophenyl)- (9CI)",418.95,1,NC(=S)Nc1cc(Cl)ccc1Cl,le15,0,0,0,0
"Decane, 1-bromo-",367.594,1,CCCCCCCCCCBr,le15,0,0,0,0
"2,5-diphenyl-1,3-oxazole",435.45,1,c1ccc(-c2cnc(-c3ccccc3)o2)cc1,le15,0,0,0,0
"Carbamic acid, methyl-, 2,3-dihydro-2,2-dimethyl-7-benzofuranyl ester",416.45,1,CNC(=O)Oc1cccc2c1OC(C)(C)C2,le15,0,0,0,1
"2-Oxazolidinone, 5-((3,5-dimethylphenoxy)methyl)-",501.35,1,Cc1cc(C)cc(OCC2CNC(=O)O2)c1,le15,0,0,0,0
"Butanamide, N-(4-ethoxyphenyl)-3-oxo-",479.95,1,CCOc1ccc(NC(=O)CC(C)=O)cc1,le15,0,0,0,0
"Carbamic acid, dimethyl-, benzo(b)thien-4-yl ester",434.55,1,CN(C)C(=O)Oc1cccc2sccc12,le15,0,0,0,1
"Benzamide, N-(1-methylethyl)-4-((2-methylhydrazino)methyl)- (9CI)",422.05,1,CNNCc1ccc(C(=O)NC(C)C)cc1,le15,0,0,0,0
"Propylamine, 3-(triethoxysilyl)- (8CI)",377.55,1,CCO[Si](CCCN)(OCC)OCC,le15,1,1,0,0
"o-Cresol, 4-bromo-6-chloro-",380.55,1,Cc1cc(Br)cc(Cl)c1O,le15,0,0,0,0
"1,1,1-trichloro-2,2-diethoxyethane",275.95,1,CCOC(OCC)C(Cl)(Cl)Cl,le15,0,0,0,0
"Benzenesulfonyl chloride, p-nitro- (8CI)",438.45,1,O=[N+]([O-])c1ccc(S(=O)(=O)Cl)cc1,le15,0,0,0,0
"3(2H)-Pyridazinone, 5-amino-4-chloro-2-phenyl-",415.75,1,Nc1cnn(-c2ccccc2)c(=O)c1Cl,le15,0,0,0,0
"Thiophene, 2,3,4,5-tetrachloro-",386.15,1,Clc1sc(Cl)c(Cl)c1Cl,le15,0,0,0,0
1-fluoro-2-iodobenzene,344.15,1,Fc1ccccc1I,le15,0,0,0,0
1-fluoro-4-iodobenzene,341.15,1,Fc1ccc(I)cc1,le15,0,0,0,0
"3,3,4,4,5,5-hexafluorooxane-2,6-dione",276.45,1,O=C1OC(=O)C(F)(F)C(F)(F)C1(F)F,le15,0,0,0,0
"1,3,5-Triazine, hexahydro-1,3,5-trinitro-",678.75,1,O=[N+]([O-])N1CN([N+](=O)[O-])CN([N+](=O)[O-])C1,le15,0,0,0,0
"2-Furanacrylic acid, alpha-cyano-5-nitro-, methyl ester",451.75,1,COC(=O)C(C#N)=Cc1ccc([N+](=O)[O-])o1,le15,0,0,0,1
"1H-Indene-1,3(2H)-dione, 2-phenyl-",481.15,1,O=C1c2ccccc2C(=O)C1c1ccccc1,le15,0,0,0,0
"Anthraquinone, 2-methyl- (8CI)",482.15,1,Cc1ccc2c(c1)C(=O)c1ccccc1C2=O,le15,0,0,0,0
"1,2-Benzenedicarboxylic acid, diethyl ester",428.95,1,CCOC(=O)c1ccccc1C(=O)OCC,le15,0,0,0,1
"Oxirane, 2,2'-(1,3-phenylenebis(oxymethylene))bis-",386.15,1,c1cc(OCC2CO2)cc(OCC2CO2)c1,le15,0,0,0,0
"4,5-dimethoxy-6-prop-2-enyl-1,3-benzodioxole",378.85,1,C=CCc1cc2c(c(OC)c1OC)OCO2,le15,0,0,0,0
"4,7-dimethoxy-5-prop-2-enyl-1,3-benzodioxole",390.35,1,C=CCc1cc(OC)c2c(c1OC)OCO2,le15,0,0,0,0
"diethyl benzene-1,3-dicarboxylate",430.85,1,CCOC(=O)c1cccc(C(=O)OCC)c1,le15,0,0,0,0
"Hexanedioic acid, di-2-propynyl ester (9CI)",419.75,1,C#CCOC(=O)CCCCC(=O)OCC#C,le15,0,0,0,1
Diethylphthalate,433.0,1,CCOC(=O)c1ccccc1C(=O)OCC,le15,0,0,0,0
1-(p-Toluenesulphonyl)imidazole,474.35,1,Cc1ccc(S(=O)(=O)n2ccnc2)cc1,le15,0,0,0,0
Bis(2-(2-methoxyethoxy)ethyl) ether,413.75,1,COCCOCCOCCOCCOC,le15,0,0,0,0
"Urea, N,N-dimethyl-N'-(octahydro-4,7-methano-1H-inden-5-yl)-",466.35,1,CN(C)C(=O)NC1CC2CC1C1CCCC21,le15,0,0,0,0
"1,2-Ethanediamine, N-(3-(trimethoxysilyl)propyl)-",381.25,1,CO[Si](CCCNCCN)(OC)OC,le15,1,1,0,0
"2,6,10-Dodecatrien-1-ol, 3,7,11-trimethyl-",385.65,1,CC(C)=CCCC(C)=CCCC(C)=CCO,le15,0,0,0,0
hexadec-1-yne,401.12699999999995,1,C#CCCCCCCCCCCCCCC,le15,0,0,0,0
(3-cyclohexyl-2-methylpropyl)cyclohexane,399.85,1,CC(CC1CCCCC1)CC1CCCCC1,le15,0,0,0,0
4-cyclohexylbutylcyclohexane,402.05,1,C1CCC(CCCCC2CCCCC2)CC1,le15,0,0,0,0
1-cyclohexylbutylcyclohexane,399.25,1,CCCC(C1CCCCC1)C1CCCCC1,le15,0,0,0,0
1-bromonaphthalen-2-ol,416.65,1,Oc1ccc2ccccc2c1Br,le15,0,0,0,0
"Biphenyl, 4,4'-dichloro- (8CI)",418.35,1,Clc1ccc(-c2ccc(Cl)cc2)cc1,le15,0,0,0,0
"1,1'-Biphenyl, 3,3'-dichloro-",423.65,1,Clc1cccc(-c2cccc(Cl)c2)c1,le15,0,0,0,0
"Butyric acid, 4,4,4-trinitro- (8CI)",429.55,1,O=C(O)CCC([N+](=O)[O-])([N+](=O)[O-])[N+](=O)[O-],le15,0,0,0,1
2-Bromooctanoic acid,397.15,1,CCCCCCC(Br)C(=O)O,le15,0,0,0,1
"Hexanoic acid, 2-bromo-, ethyl ester",364.55,1,CCCCC(Br)C(=O)OCC,le15,0,0,0,1
"9,10-Anthracenedione, 2-amino-",556.15,1,Nc1ccc2c(c1)C(=O)c1ccccc1C2=O,le15,0,0,0,0
"Phenanthrene, 9-nitro-",480.65,1,O=[N+]([O-])c1cc2ccccc2c2ccccc12,le15,0,0,0,0
"Anthracene, 2-nitro-",487.85,1,O=[N+]([O-])c1ccc2cc3ccccc3cc2c1,le15,0,0,0,0
"9,10-Anthracenedione, 1-amino-",508.15,1,Nc1cccc2c1C(=O)c1ccccc1C2=O,le15,0,0,0,0
"4H-3,1-Benzoxazin-4-one, 2-phenyl-",436.15,1,O=c1oc(-c2ccccc2)nc2ccccc12,le15,0,0,0,0
"Acetamide, N-9H-fluoren-2-yl-",550.35,1,CC(=O)Nc1ccc2c(c1)Cc1ccccc1-2,le15,0,0,0,0
"Benzamide, N,N-diethyl-4-hydroxy-3-methoxy-",469.75,1,CCN(CC)C(=O)c1ccc(O)c(OC)c1,le15,0,0,0,0
"Arsine oxide, dichloro(2-chlorovinyl)-",384.55,1,O=[As](Cl)(Cl)C=CCl,le15,0,1,0,0
"Benzothiazole, 2-(butylthio)-",432.75,1,CCCCSc1nc2ccccc2s1,le15,0,0,0,0
"4-bromo-3-chloro-3,4,4-trifluorobut-1-ene",294.25,1,C=CC(F)(Cl)C(F)(F)Br,le15,0,0,0,0
"Ethanone, 2-chloro-1-(2,4-dichlorophenyl)-",385.15,1,O=C(CCl)c1ccc(Cl)cc1Cl,le15,0,0,0,0
"Carbamic acid, (3-chlorophenyl)-, 1-methyl-2-propynyl ester (9CI)",390.25,1,C#CC(C)OC(=O)Nc1cccc(Cl)c1,le15,0,0,0,1
"Carbamodithioic acid, diethyl-, 2-chloro-2-propenyl ester (9CI)",386.75,1,C=C(Cl)CSC(=S)N(CC)CC,le15,0,0,0,1
"1,2-dibromo-1,1-difluoroethane",282.65,1,FC(F)(Br)CBr,le15,0,0,0,0
"2-Butenoic acid, 3-((dimethoxyphosphinyl)oxy)-, methyl ester, (E)-",388.25,1,COC(=O)/C=C(\C)OP(=O)(OC)OC,le15,0,0,0,1
"Glycine, N-(4-nitrobenzoyl)-",548.15,1,O=C(O)CNC(=O)c1ccc([N+](=O)[O-])cc1,le15,0,0,0,0
"9,10-Anthracenedione, 1-hydroxy-",491.95,1,O=C1c2ccccc2C(=O)c2c(O)cccc21,le15,0,0,0,0
"4-[cyclopropyl(hydroxy)methylidene]-3,5-dioxocyclohexane-1-carboxylic",523.85,1,O=C1CC(C(=O)O)CC(=O)C1=C(O)C1CC1,le15,0,0,0,0
"Benzenebutanoic acid, alpha,2-diamino-3-hydroxy-gamma-oxo- (9CI)",541.05,1,Nc1c(O)cccc1C(=O)CC(N)C(=O)O,le15,0,0,0,1
tripropan-2-yl phosphate,375.55,1,CC(C)OP(=O)(OC(C)C)OC(C)C,le15,0,0,0,0
"Chalcone, 4'-hydroxy- (8CI)",452.25,1,O=C(C=Cc1ccccc1)c1ccc(O)cc1,le15,0,0,0,0
"Phosphoric acid, tripropyl ester",394.45,1,CCCOP(=O)(OCCC)OCCC,le15,0,0,0,1
"1H-Benzimidazol-5-amine, 2-(4-aminophenyl)-",590.75,1,Nc1ccc(-c2nc3cc(N)ccc3[nH]2)cc1,le15,0,0,0,0
"2-Propanol, 1-butoxy-3-phenoxy-",436.25,1,CCCCOCC(O)COc1ccccc1,le15,0,0,0,0
decylcyclohexane,400.65,1,CCCCCCCCCCC1CCCCC1,le15,0,0,0,0
1hexadecene,405.0,1,C=CCCCCCCCCCCCCCC,le15,0,0,0,0
"Toluene, o-bromo-alpha,alpha,alpha-trifluoro-",324.85,1,FC(F)(F)c1ccccc1Br,le15,0,0,0,0
1-bromo-3-(trifluoromethyl)benzene,316.45,1,FC(F)(F)c1cccc(Br)c1,le15,0,0,0,0
1-bromo-4-(trifluoromethyl)benzene,322.039,1,FC(F)(F)c1ccc(Br)cc1,le15,0,0,0,0
"Pyrimidine, 4,6-dichloro-2-phenyl-",392.05,1,Clc1cc(Cl)nc(-c2ccccc2)n1,le15,0,0,0,0
"Naphthalene, 1,4-bis(chloromethyl)-",460.35,1,ClCc1ccc(CCl)c2ccccc12,le15,0,0,0,0
"2-Oxazolidinone, 3-(((5-nitro-2-furanyl)methylene)amino)-",440.65,1,O=C1OCCN1N=Cc1ccc([N+](=O)[O-])o1,le15,0,0,0,0
"Benzamide, 2-methyl-3,5-dinitro-",407.15,1,Cc1c(C(N)=O)cc([N+](=O)[O-])cc1[N+](=O)[O-],le15,0,0,0,0
"9H-Fluoren-9-one, 2-nitro-",488.25,1,O=C1c2ccccc2-c2ccc([N+](=O)[O-])cc21,le15,0,0,0,0
1-Nitrophenazine,490.65,1,O=[N+]([O-])c1cccc2nc3ccccc3nc12,le15,0,0,0,0
"Tyrosine, 3-carboxy-, DL-",520.15,1,NC(Cc1ccc(O)c(C(=O)O)c1)C(=O)O,le15,0,0,0,0
"Benzene, 1-nitro-4-(2-phenylethenyl)- (9CI)",446.25,1,O=[N+]([O-])c1ccc(C=Cc2ccccc2)cc1,le15,0,0,0,0
"Benzoic acid, 2-((phenylmethylene)amino)- (9CI)",493.65,1,O=C(O)c1ccccc1N=Cc1ccccc1,le15,0,0,0,1
"Phenanthrene, 9,10-dihydro-2-nitro-",459.05,1,O=[N+]([O-])c1ccc2c(c1)CCc1ccccc1-2,le15,0,0,0,0
"1,2-Propanediol, 3-(2-methylphenoxy)-, 1-carbamate (9CI)",505.95,1,Cc1ccccc1OCC(O)COC(N)=O,le15,0,0,0,0
"1H-Purin-6-amine, N-(phenylmethyl)-",547.15,1,c1ccc(CNc2[nH]cnc3ncnc2-3)cc1,le15,0,0,0,0
"9H-Purin-6-amine, 9-(phenylmethyl)- (9CI)",522.15,1,Nc1ncnc2c1ncn2Cc1ccccc1,le15,0,0,0,0
"Benzenamine, 4-(2-(4-methoxyphenyl)ethenyl)-",488.55,1,COc1ccc(C=Cc2ccc(N)cc2)cc1,le15,0,0,0,0
"Benzenamine, N,N-dimethyl-4-(phenylazo)-",451.35,1,CN(C)c1ccc(N=Nc2ccccc2)cc1,le15,0,0,0,0
"1-Triazene, 1-(1,1'-biphenyl)-4-yl-3,3-dimethyl- (9CI)",433.65,1,CN(C)N=Nc1ccc(-c2ccccc2)cc1,le15,0,0,0,0
"1,3,5-Triazine-2,4-diamine, 6-methoxy-N,N'-bis(1-methylethyl)-",444.05,1,COc1nc(NC(C)C)nc(NC(C)C)n1,le15,0,0,0,0
"Phenol, 3,5-dimethyl-4-(methylthio)-, methylcarbamate (9CI)",414.85,1,CNC(=O)Oc1cc(C)c(SC)c(C)c1,le15,0,0,0,0
"Benzenemethanamine, alpha-methyl-N-(1-phenylethyl)- (9CI)",410.35,1,CC(NC(C)c1ccccc1)c1ccccc1,le15,0,0,0,0
"Benzoic acid, 2,3,6-trichloro-",423.25,1,O=C(O)c1c(Cl)ccc(Cl)c1Cl,le15,0,0,0,1
"5-Chloro-alpha,alpha,alpha-trifluoro-2-nitrotoluene",367.05,1,O=[N+]([O-])c1ccc(Cl)cc1C(F)(F)F,le15,0,0,0,0
"Toluene, 4-chloro-alpha,alpha,alpha-trifluoro-3-nitro- (8CI)",374.81699999999995,1,O=[N+]([O-])c1cc(C(F)(F)F)ccc1Cl,le15,0,0,0,0
1-chloro-4-nitro-2-(trifluoromethyl)benzene,371.15,1,O=[N+]([O-])c1ccc(Cl)c(C(F)(F)F)c1,le15,0,0,0,0
"Acetamide, 2-chloro-N-(2,6-diethylphenyl)-",450.25,1,CCc1cccc(CC)c1NC(=O)CCl,le15,0,0,0,0
"Imidazole, 4,5-dibromo- (7CI,8CI)",461.95,1,Brc1nc[nH]c1Br,le15,0,0,0,0
"1-bromo-2,4-dichlorobenzene",379.85,1,Clc1ccc(Br)c(Cl)c1,le15,0,0,0,0
"2-bromo-1,3-dichlorobenzene",384.45,1,Clc1cccc(Cl)c1Br,le15,0,0,0,0
"1-bromo-3,5-dichlorobenzene",377.05,1,Clc1cc(Cl)cc(Br)c1,le15,0,0,0,0
"1-bromo-2,3-dichlorobenzene",381.85,1,Clc1cccc(Br)c1Cl,le15,0,0,0,0
"2-bromo-1,4-dichlorobenzene",379.55,1,Clc1ccc(Cl)c(Br)c1,le15,0,0,0,0
"4-bromo-1,2-dichlorobenzene",377.25,1,Clc1ccc(Br)cc1Cl,le15,0,0,0,0
"Phenol, 2-(1-methylethyl)-4,6-dinitro- (9CI)",400.65,1,CC(C)c1cc([N+](=O)[O-])cc([N+](=O)[O-])c1O,le15,0,0,0,0
"Tyrosine, 3-nitro-, L- (8CI)",487.95,1,N[C@@H](Cc1ccc(O)c([N+](=O)[O-])c1)C(=O)O,le15,0,0,0,0
benzoyl benzoate,441.55,1,O=C(OC(=O)c1ccccc1)c1ccccc1,le15,0,0,0,0
"9(10H)-Anthracenone, 1,8-dihydroxy- (9CI)",521.75,1,O=C1c2c(O)cccc2Cc2cccc(O)c21,le15,0,0,0,0
"methyl 3,4,5-trimethoxybenzoate",388.35,1,COC(=O)c1cc(OC)c(OC)c(OC)c1,le15,0,0,0,0
"9H-Fluoren-2-amine, 7-nitro- (9CI)",504.15,1,Nc1ccc2c(c1)Cc1cc([N+](=O)[O-])ccc1-2,le15,0,0,0,0
"2-Propen-1-one, 1-(4-fluorophenyl)-3-phenyl- (9CI)",433.45,1,O=C(C=Cc1ccccc1)c1ccc(F)cc1,le15,0,0,0,0
"2-Propen-1-one, 3-(4-fluorophenyl)-1-phenyl- (9CI)",430.45,1,O=C(C=Cc1ccc(F)cc1)c1ccccc1,le15,0,0,0,0
"Benzoic acid, 2-phenylethyl ester",433.85,1,O=C(OCCc1ccccc1)c1ccccc1,le15,0,0,0,1
"Acetic acid, phenyl-, p-tolyl ester (6CI,7CI,8CI)",395.45,1,Cc1ccc(OC(=O)Cc2ccccc2)cc1,le15,0,0,0,1
"Benzeneacetic acid, phenylmethyl ester",528.45,1,O=C(Cc1ccccc1)OCc1ccccc1,le15,0,0,0,1
"Propane, 1-(2-biphenylyloxy)-2,3-epoxy- (6CI,7CI,8CI)",410.45,1,c1ccc(-c2ccccc2OCC2CO2)cc1,le15,0,0,0,0
"Propane, 1-(4-biphenyloxy)-2,3-epoxy- (7CI,8CI)",430.75,1,c1ccc(-c2ccc(OCC3CO3)cc2)cc1,le15,0,0,0,0
"1-Propanone, 2-methyl-1,2-di-3-pyridinyl-",462.45,1,CC(C)(C(=O)c1cccnc1)c1cccnc1,le15,0,0,0,0
"Acetamide, N-(4'-amino(1,1'-biphenyl)-4-yl)- (9CI)",508.45,1,CC(=O)Nc1ccc(-c2ccc(N)cc2)cc1,le15,0,0,0,0
"Benzenemethanamide, N-nitroso-N-(phenylmethyl)- (9CI)",481.55,1,O=NN(Cc1ccccc1)C(=O)c1ccccc1,le15,0,0,0,0
"Phosphorothioic acid, S-tert-butyl O,O-diethyl ester",383.35,1,CCOP(=O)(OCC)SC(C)(C)C,le15,0,0,0,1
"1,4-Benzenediamine, N-(1-methylethyl)-N'-phenyl-",504.05,1,CC(C)Nc1ccc(Nc2ccccc2)cc1,le15,0,0,0,0
"o-Toluidine, 4,4'-methylenedi- (8CI)",512.05,1,Cc1cc(Cc2ccc(N)c(C)c2)ccc1N,le15,0,0,0,0
"2-Propenoic acid, 2-methyl-, decyl ester",387.85,1,C=C(C)C(=O)OCCCCCCCCCC,le15,0,0,0,1
"Benzene, 1,2,4-trichloro-5-nitro-",402.85,1,O=[N+]([O-])c1cc(Cl)c(Cl)cc1Cl,le15,0,0,0,0
pentadecan-8-one,356.25,1,CCCCCCCC(=O)CCCCCCC,le15,0,0,0,0
pentadecan-2-one,357.05,1,CCCCCCCCCCCCCC(C)=O,le15,0,0,0,0
"Nonane, 2,2,4,4,6,8,8-heptamethyl-",368.75,1,CC(CC(C)(C)C)CC(C)(C)CC(C)(C)C,le15,0,0,0,0
"2,2,4,4,6,6,8-heptamethylnonane",383.35,1,CC(C)CC(C)(C)CC(C)(C)CC(C)(C)C,le15,0,0,0,0
"1,4-Cyclohexadiene-1,2-dicarbonitrile, 4,5-dichloro-3,6-dioxo-",409.45,1,N#CC1=C(C#N)C(=O)C(Cl)=C(Cl)C1=O,le15,0,0,0,0
"1,4-Naphthalenedione, 2,3-dichloro-",400.65,1,O=C1C(Cl)=C(Cl)C(=O)c2ccccc21,le15,0,0,0,0
"1,2,3-Propanetriol, trinitrate",285.15,1,O=[N+]([O-])OCC(CO[N+](=O)[O-])O[N+](=O)[O-],le15,0,0,0,0
"Benzene, 2-methyl-1,3,5-trinitro-",440.25,1,Cc1c([N+](=O)[O-])cc([N+](=O)[O-])cc1[N+](=O)[O-],le15,0,0,0,0
"1-methyl-2,3,4-trinitrobenzene",504.65,1,Cc1ccc([N+](=O)[O-])c([N+](=O)[O-])c1[N+](=O)[O-],le15,0,0,0,0
"Diazene, (4-nitrophenyl)phenyl- (9CI)",464.55,1,O=[N+]([O-])c1ccc(N=Nc2ccccc2)cc1,le15,0,0,0,0
"Benzeneacetamide, alpha-hydroxy-alpha-phenyl- (9CI)",489.75,1,NC(=O)C(O)(c1ccccc1)c1ccccc1,le15,0,0,0,0
N-(4-Phenoxyphenyl)acetamide,475.35,1,CC(=O)Nc1ccc(Oc2ccccc2)cc1,le15,0,0,0,0
"Benzenamine, 2-methoxy-4-(phenylazo)- (9CI)",468.15,1,COc1cc(N=Nc2ccccc2)ccc1N,le15,0,0,0,0
"Benzenamine, 4-(1-methylethoxy)-N-phenyl-",420.55,1,CC(C)Oc1ccc(Nc2ccccc2)cc1,le15,0,0,0,0
"1,3,5-Triazine-2,4-diamine, N-ethyl-N'-(1-methylethyl)-6-(methylthio)-",466.65,1,CCNc1nc(NC(C)C)nc(SC)n1,le15,0,0,0,0
"Phenol, 2,3,4-trichloro-6-methoxy-",403.05,1,COc1cc(Cl)c(Cl)c(Cl)c1O,le15,0,0,0,0
"1-Pentanamine, N,N-dipentyl-",370.95,1,CCCCCN(CCCCC)CCCCC,le15,0,0,0,0
"3-methyl-N,N-bis(3-methylbutyl)butan-1-amine",357.25,1,CC(C)CCN(CCC(C)C)CCC(C)C,le15,0,0,0,0
1-Pentadecanamine,402.45,1,CCCCCCCCCCCCCCCN,le15,0,0,0,0
"Benzonitrile, 4-chloro-3,5-dinitro-",424.35,1,N#Cc1cc([N+](=O)[O-])c(Cl)c([N+](=O)[O-])c1,le15,0,0,0,0
"Phenol, 2-chloro-3-(1-methylethyl)-, methylcarbamate (9CI)",401.75,1,CNC(=O)Oc1cccc(C(C)C)c1Cl,le15,0,0,0,0
"Benzene, (2-bromo-2-nitroethenyl)-",399.35,1,O=[N+]([O-])C(Br)=Cc1ccccc1,le15,0,0,0,0
"8-Quinolinol, 5,7-dichloro-2-methyl-",439.05,1,Cc1ccc2c(Cl)cc(Cl)c(O)c2n1,le15,0,0,0,0
2-Bromo-N-(4-methylphenyl)acetamide,441.85,1,Cc1ccc(NC(=O)CBr)cc1,le15,0,0,0,0
"1-Triazene, 1-(4-bromophenyl)-3,3-dimethyl- (9CI)",385.25,1,CN(C)N=Nc1ccc(Br)cc1,le15,0,0,0,0
"Benzoic acid, 2-hydroxy-3,5-dinitro-",446.95,1,O=C(O)c1cc([N+](=O)[O-])cc([N+](=O)[O-])c1O,le15,0,0,0,1
"4-bromo-N,N-diethylaniline",398.25,1,CCN(CC)c1ccc(Br)cc1,le15,0,0,0,0
"Benzeneacetic acid, alpha-hydroxy-alpha-phenyl-",488.45,1,O=C(O)C(O)(c1ccccc1)c1ccccc1,le15,0,0,0,1
"Benzoic acid, 2-hydroxy-, phenylmethyl ester",410.15,1,O=C(OCc1ccccc1)c1ccccc1O,le15,0,0,0,1
"Methanone, (2-hydroxy-4-methoxyphenyl)phenyl-",413.65,1,COc1ccc(C(=O)c2ccccc2)c(O)c1,le15,0,0,0,0
"7H-Furo(3,2-g)(1)benzopyran-7-one, 2,5,9-trimethyl-",462.25,1,Cc1cc2cc3c(C)cc(=O)oc3c(C)c2o1,le15,0,0,0,0
"Benzenamine, 4-methyl-N-(4-nitrophenyl)-",468.15,1,Cc1ccc(Nc2ccc([N+](=O)[O-])cc2)cc1,le15,0,0,0,0
"Phosphine, diphenylpropyl-",423.65,1,PCCC(c1ccccc1)c1ccccc1,le15,0,0,0,0
Triphenylene,482.25,1,c1ccc2c(c1)c1ccccc1c1ccccc21,le15,0,0,0,0
Chrysene,482.25,1,c1ccc2c(c1)ccc1c3ccccc3ccc21,le15,0,0,0,0
"Phenol, 4,4'-(1-methylethylidene)bis-",500.15,1,CC(C)(c1ccc(O)cc1)c1ccc(O)cc1,le15,0,0,0,0
"Thiourea, N,N'-diphenyl-",437.85,1,S=C(Nc1ccccc1)Nc1ccccc1,le15,0,0,0,0
"p-Toluenesulfonic acid, isobutyl ester",425.95,1,Cc1ccc(S(=O)(=O)OCC(C)C)cc1,le15,0,0,0,1
"Benzenesulfonamide, 4-amino-N,N-diethyl-",454.25,1,CCN(CC)S(=O)(=O)c1ccc(N)cc1,le15,0,0,0,0
"Phosphorodithioic acid, O-methyl S,S-dipropyl ester",404.45,1,CCCSP(=O)(OC)SCCC,le15,0,0,0,1
"2,2-bis(ethylsulfonyl)propane",556.05,1,CCS(=O)(=O)C(C)(C)S(=O)(=O)CC,le15,0,0,0,0
"Lauric acid, ethyl ester (8CI)",391.75,1,CCCCCCCCCCCC(=O)OCC,le15,0,0,0,1
"Phosphonotrithioic acid, methyl-, dipropyl ester",409.45,1,CCCSP(C)(=S)SCCC,le15,0,0,0,1
"Octanoic acid, hexyl ester",393.15,1,CCCCCCCC(=O)OCCCCCC,le15,0,0,0,1
octyl hexanoate,393.15,1,CCCCCCCCOC(=O)CCCCC,le15,0,0,0,0
pentadecan-1-ol,403.25,1,CCCCCCCCCCCCCCCO,le15,0,0,0,0
pentadecan-2-ol,382.15,1,CCCCCCCCCCCCCC(C)O,le15,0,0,0,0
"Butanoic acid, 4-(4-chloro-2-methylphenoxy)- (9CI)",464.65,1,Cc1cc(Cl)ccc1OCCCC(=O)O,le15,0,0,0,1
"Acetic acid, bromo-, phenylmethyl ester",389.65,1,O=C(CBr)OCc1ccccc1,le15,0,0,0,1
"Benzoic acid, p-bromo-, ethyl ester (8CI)",386.15,1,CCOC(=O)c1ccc(Br)cc1,le15,0,0,0,1
ethyl 2-bromobenzoate,383.25,1,CCOC(=O)c1ccccc1Br,le15,0,0,0,0
"2-(3-bromophenyl)-1,3-dioxolane",386.15,1,Brc1cccc(C2OCCO2)c1,le15,0,0,0,0
ethyl 3-bromobenzoate,385.15,1,CCOC(=O)c1cccc(Br)c1,le15,0,0,0,0
"Phenol, 2,4,6-trinitro-",407.05,1,O=[N+]([O-])c1cc([N+](=O)[O-])c(O)c([N+](=O)[O-])c1,le15,0,0,0,0
"Salicylic acid, 4-amino-, phenyl ester (8CI)",472.75,1,Nc1ccc(C(=O)Oc2ccccc2)c(O)c1,le15,0,0,0,1
"Furo(2,3-b)quinoline, 4,7-dimethoxy-",457.35,1,COc1ccc2c(OC)c3ccoc3nc2c1,le15,0,0,0,0
"Furo(2,3-b)quinoline, 4,8-dimethoxy-",457.35,1,COc1c2ccoc2nc2c(OC)cccc12,le15,0,0,0,0
"Benzamide, 2-hydroxy-N-(4-hydroxyphenyl)- (9CI)",439.05,1,O=C(Nc1ccc(O)cc1)c1ccccc1O,le15,0,0,0,0
"Benzidine, 2-nitro-",486.85,1,Nc1ccc(-c2ccc(N)cc2[N+](=O)[O-])cc1,le15,0,0,0,0
"Acetamide, N-(4'-fluoro(1,1'-biphenyl)-4-yl)- (9CI)",478.65,1,CC(=O)Nc1ccc(-c2ccc(F)cc2)cc1,le15,0,0,0,0
"Acetanilide, 2-fluoro-4'-phenyl-",486.25,1,O=C(CF)Nc1ccc(-c2ccccc2)cc1,le15,0,0,0,0
"Naphtho(1,2-h)quinoline",476.35,1,c1ccc2c(c1)ccc1c2ccc2cccnc21,le15,0,0,0,0
"Naphtho(2,3-h)quinoline",476.35,1,c1ccc2cc3c(ccc4cccnc43)cc2c1,le15,0,0,0,0
"Naphth(2,1-f)isoquinoline",486.35,1,c1ccc2c(c1)ccc1c3ccncc3ccc21,le15,0,0,0,0
"Naphtho(2,1-f)quinoline",476.35,1,c1ccc2c(c1)ccc1c3cccnc3ccc21,le15,0,0,0,0
"Benzenamine, 4-methoxy-N-(4-methoxyphenyl)-",423.65,1,COc1ccc(Nc2ccc(OC)cc2)cc1,le15,0,0,0,0
"2-Naphthalenemethanol, alpha-(((1-methylethyl)amino)methyl)-",357.45,1,CC(C)NCC(O)c1ccc2ccccc2c1,le15,0,0,0,0
"Melamine, N2,N4,N6-trichloro- (8CI)",478.55,1,ClNc1nc(NCl)nc(NCl)n1,le15,0,0,0,0
"Pyrazinecarboxamide, 3,5-diamino-N-(aminoiminomethyl)-6-chloro-",606.85,1,NN=CNC(=O)c1nc(Cl)c(N)nc1N,le15,0,0,0,0
"Benzoxazole, 2-(p-chlorophenyl)-",421.95,1,Clc1ccc(-c2nc3ccccc3o2)cc1,le15,0,0,0,0
"4-Stilbenamine, 4'-chloro-",467.15,1,Nc1ccc(C=Cc2ccc(Cl)cc2)cc1,le15,0,0,0,0
"1,3,5-Triazine-2,4-diamine, 6-chloro-N,N'-bis(1-methylethyl)-",452.55,1,CC(C)Nc1nc(Cl)nc(NC(C)C)n1,le15,0,0,0,0
"1,3,5-Triazine-2,4-diamine, 6-chloro-N,N,N'-triethyl-",453.25,1,CCNc1nc(Cl)nc(N(CC)CC)n1,le15,0,0,0,0
"Ether, 2-fluoroethyl (1,2,2,2-tetrachloro)ethyl",363.65,1,FCCOC(Cl)C(Cl)(Cl)Cl,le15,0,0,0,0
2-bromo-2-methylpropanoyl bromide,376.15,1,CC(C)(Br)C(=O)Br,le15,0,0,0,0
1-chloro-3-(trichloromethyl)benzene,375.05,1,Clc1cccc(C(Cl)(Cl)Cl)c1,le15,0,0,0,0
1-chloro-2-(trichloromethyl)benzene,371.45,1,Clc1ccccc1C(Cl)(Cl)Cl,le15,0,0,0,0
"1,2,4-trichloro-5-(chloromethyl)benzene",400.95,1,ClCc1cc(Cl)c(Cl)cc1Cl,le15,0,0,0,0
"1,2-dichloro-4-(dichloromethyl)benzene",397.15,1,Clc1ccc(C(Cl)Cl)cc1Cl,le15,0,0,0,0
"2,3-dibromopentane",327.55,1,CCC(Br)C(C)Br,le15,0,0,0,0
"Pentane, 1,5-dibromo-",367.85,1,BrCCCCCBr,le15,0,0,0,0
"Cyclopropanecarboxanilide, 3',4'-dichloro-",470.45,1,O=C(Nc1ccc(Cl)c(Cl)c1)C1CC1,le15,0,0,0,0
"1H-Imidazol-2-amine, N-(2,6-dichlorophenyl)-4,5-dihydro-",420.05,1,Clc1cccc(Cl)c1NC1=NCCN1,le15,0,0,0,0
"Benzophenone, 2,3,4-trihydroxy- (8CI)",507.05,1,O=C(c1ccccc1)c1ccc(O)c(O)c1O,le15,0,0,0,0
"5H-Furo(3,2-g)(1)benzopyran-5-one, 4-methoxy-7-methyl-",455.65,1,COc1c2ccoc2cc2oc(C)cc(=O)c12,le15,0,0,0,0
"4-Biphenylacetic acid, 2'-fluoro-",457.85,1,O=C(O)Cc1ccc(-c2ccccc2F)cc1,le15,0,0,0,1
7H-Benz(de)anthracen-7-one,469.25,1,O=C1c2ccccc2-c2cccc3cccc1c23,le15,0,0,0,0
"Phosphorodithioic acid, S-hydroxymethyl O,O-dimethyl ester, acetate",383.05,1,CC(=O)O.COP(=S)(OC)SCO,le15,0,0,0,1
1-Pyrene carboxaldehyde,567.75,1,O=Cc1ccc2ccc3cccc4ccc1c2c34,le15,0,0,0,0
11H-Benzo(a)fluoren-11-one,467.05,1,O=C1c2ccccc2-c2ccc3ccccc3c21,le15,0,0,0,0
"Dibenzo(c,f)(2,7)naphthyridine",486.05,1,c1ccc2c(c1)ncc1cnc3ccccc3c12,le15,0,0,0,0
"Phosphonothioic acid, ethyl-, O-ethyl S-phenyl ester",416.65,1,CCOP(=O)(CC)Sc1ccccc1,le15,0,0,0,1
"2-Propanone, 1,1,1,3,3-pentachloro-",347.55,1,O=C(C(Cl)Cl)C(Cl)(Cl)Cl,le15,0,0,0,0
"1H-Pyrido(3,4-b)indole-3-carboxylic acid, 2,3,4,9-tetrahydro-1-methyl-",522.05,1,CC1NC(C(=O)O)Cc2c1[nH]c1ccccc21,le15,0,0,0,1
"Heptanedioic acid, 4-oxo-, diethyl ester",410.55,1,CCOC(=O)CCC(=O)CCC(=O)OCC,le15,0,0,0,1
"diethyl piperazine-1,4-dicarboxylate",417.45,1,CCOC(=O)N1CCN(C(=O)OCC)CC1,le15,0,0,0,0