compound,flashpoint,pure substance,smiles,source,is_silicon,is_metallic,is_tin,is_acid
"2,3,4,5-tetramethylphenol",389.75,1,Cc1cc(O)c(C)c(C)c1C,le15,0,0,0,0
"p-Mentha-3,8-diene, 3,9-epoxy- (8CI)",348.65,1,Cc1coc2c1CCC(C)C2,le15,0,0,0,0
"Phenol, 2-methyl-5-(1-methylethyl)-",379.85,1,Cc1ccc(C(C)C)cc1O,le15,0,0,0,0
"2,3,5,6-tetramethylphenol",384.75,1,Cc1cc(C)c(C)c(O)c1C,le15,0,0,0,0
"Benzenemethanol, 4-(1-methylethyl)-",379.15,1,CC(C)c1ccc(CO)cc1,le15,0,0,0,0
3-(4-methylpent-3-enyl)furan,329.05,1,CC(C)=CCCc1ccoc1,le15,0,0,0,0
"Bicyclo(3.1.1)hept-2-ene-2-carboxaldehyde, 6,6-dimethyl-",352.05,1,CC1(C)C2CC=C(C=O)C1C2,le15,0,0,0,0
"Phenol, 3-(1,1-dimethylethyl)-",382.65,1,CC(C)(C)c1cccc(O)c1,le15,0,0,0,0
"Tricyclo(3.3.1.13,7)decanone (9CI)",368.85,1,O=C1C2CC3CC(C2)CC1C3,le15,0,0,0,0
n-Butyl phenyl ether,355.15,1,CCCCOc1ccccc1,le15,0,0,0,0
"(1S,5S)-2,6,6-trimethylbicyclo[3.1.1]hept-2-en-4-one",358.15,1,CC1=CC(=O)[C@H]2C[C@@H]1C2(C)C,le15,0,0,0,0
"Benzenemethanol, alpha-ethyl-alpha-methyl-",363.75,1,CCC(C)(O)c1ccccc1,le15,0,0,0,0
1-ethoxy-4-ethylbenzene,355.45,1,CCOc1ccc(CC)cc1,le15,0,0,0,0
2-methyl-4-propan-2-ylphenol,377.25,1,Cc1cc(C(C)C)ccc1O,le15,0,0,0,0
4-prop-1-en-2-ylcyclohexene-1-carbaldehyde,368.75,1,C=C(C)C1CC=C(C=O)CC1,le15,0,0,0,0
"2-Cyclohexen-1-one, 2-methyl-5-(1-methylethenyl)-, (5S)-",370.15,1,C=C(C)[C@H]1CC=C(C)C(=O)C1,le15,0,0,0,0
"Benzenepropanol, gamma-methyl-",375.25,1,CC(CCO)c1ccccc1,le15,0,0,0,0
3-methyl-4-propan-2-ylphenol,377.25,1,Cc1cc(O)ccc1C(C)C,le15,0,0,0,0
2-methyl-6-propan-2-ylphenol,368.75,1,Cc1cccc(C(C)C)c1O,le15,0,0,0,0
"2,3,4,6-tetramethylphenol",383.95,1,Cc1cc(C)c(O)c(C)c1C,le15,0,0,0,0
"4,7-Methano-1H-inden-6-ol, 3a,4,5,6,7,7a-hexahydro-",363.35,1,OC1CC2CC1C1CC=CC21,le15,0,0,0,0
4-methyl-2-propan-2-ylphenol,371.25,1,Cc1ccc(O)c(C(C)C)c1,le15,0,0,0,0
"2-Cyclohexen-1-one, 2-methyl-5-(1-methylethenyl)-, (R)- (9CI)",361.15,1,C=C(C)[C@@H]1CC=C(C)C(=O)C1,le15,0,0,0,0
butan-2-yloxybenzene,344.75,1,CCC(C)Oc1ccccc1,le15,0,0,0,0
"Benzenemethanol, alpha,alpha,4-trimethyl-",375.85,1,Cc1ccc(C(C)(C)O)cc1,le15,0,0,0,0
4-butylphenol,394.65,1,CCCCc1ccc(O)cc1,le15,0,0,0,0
4-phenylbutan-2-ol,383.15,1,CC(O)CCc1ccccc1,le15,0,0,0,0
3-methyl-5-propan-2-ylphenol,381.45,1,Cc1cc(O)cc(C(C)C)c1,le15,0,0,0,0
"1-Butanol, 4-phenyl- (8CI)",387.45,1,OCCCCc1ccccc1,le15,0,0,0,0
3-butylphenol,395.85,1,CCCCc1cccc(O)c1,le15,0,0,0,0
"2,6,6-trimethylbicyclo[3.1.1]hept-2-en-4-one",358.15,1,CC1=CC(=O)C2CC1C2(C)C,le15,0,0,0,0
2-methyl-5-propan-2-ylbicyclo[3.1.0]hex-2-en-4-one,358.35,1,CC1=CC(=O)C2(C(C)C)CC12,le15,0,0,0,0
Carvacrol,379.0,1,Cc1ccc(C(C)C)cc1O,le15,0,0,0,0
"Hydrazine, (1-methyl-2-phenylethyl)- (9CI)",421.15,1,CC(Cc1ccccc1)NN,le15,0,0,0,0
"2,4-Mesitylenediamine (7CI,8CI)",431.55,1,Cc1cc(C)c(N)c(C)c1N,le15,0,0,0,0
(Allylthio)benzene,351.968,1,C=CCSc1ccccc1,le15,0,0,0,0
Propyl sulfone (8CI),398.95,1,CCCS(=O)(=O)CCC,le15,0,0,0,0
"3H-1,2,4-Dithiazole-3-thione, 5-amino- (8CI)(9CI)",397.15,1,Nc1nc(=S)ss1,le15,0,0,0,0
ethyl(trimethoxy)silane,297.35,1,CC[Si](OC)(OC)OC,le15,1,1,0,0
trimethyl(phenyl)silane,317.15,1,C[Si](C)(C)c1ccccc1,le15,1,1,0,0
Propyl disulfide (8CI),339.25,1,CCCSSCCC,le15,0,0,0,0
"Hexane-1,6-dithiol",363.75,1,SCCCCCCS,le15,0,0,0,0
"1,2-Bis(ethylthio)ethane",354.35,1,CCSCCSCC,le15,0,0,0,0
Isopropyl disulfide (8CI),291.45,1,CC(C)SSC(C)C,le15,0,0,0,0
"Acetic acid, chloro-, 1,1-dimethylethyl ester",314.55,1,CC(C)(C)OC(=O)CCl,le15,0,0,0,1
butyl 2-chloroacetate,353.05,1,CCCCOC(=O)CCl,le15,0,0,0,0
"Butyric acid, 4-chloro-, ethyl ester (8CI)",324.85,1,CCOC(=O)CCCCl,le15,0,0,0,1
"Hexanoic acid, 6-chloro-",380.75,1,O=C(O)CCCCCCl,le15,0,0,0,1
"1,3-Dioxolane, 4-(chloromethyl)-2,2-dimethyl-",327.65,1,CC1(C)OCC(CCl)O1,le15,0,0,0,0
propan-2-yl 2-chloropropanoate,317.85,1,CC(C)OC(=O)C(C)Cl,le15,0,0,0,0
butyl-chloro-dimethylsilane,303.25,1,CCCC[Si](C)(C)Cl,le15,1,1,0,0
3-chloropropyl(trimethyl)silane,303.65,1,C[Si](C)(C)CCCCl,le15,1,1,0,0
2-bromopentane,293.75,1,CCCC(C)Br,le15,0,0,0,0
(2S)-1-bromo-2-methylbutane,295.35,1,CC[C@H](C)CBr,le15,0,0,0,0
3-bromopentane,304.45,1,CCC(Br)CC,le15,0,0,0,0
1-bromo-3-methylbutane,305.35,1,CC(C)CCBr,le15,0,0,0,0
"Propane, 1-bromo-2,2-dimethyl-",279.85,1,CC(C)(C)CBr,le15,0,0,0,0
"2,3,5,6-tetrafluoropyridine",303.75,1,Fc1cc(F)c(F)nc1F,le15,0,0,0,0
"Benzaldehyde, 3-nitro-",401.75,1,O=Cc1cccc([N+](=O)[O-])c1,le15,0,0,0,0
"Benzaldehyde, 4-nitro-",428.35,1,O=Cc1ccc([N+](=O)[O-])cc1,le15,0,0,0,0
"Benzaldehyde, 2-nitro-",417.15,1,O=Cc1ccccc1[N+](=O)[O-],le15,0,0,0,0
"1,3-Propanediol, 2-(hydroxymethyl)-2-nitro-",482.45,1,O=[N+]([O-])C(CO)(CO)CO,le15,0,0,0,0
"Benzene, 1,3-dimethyl-2-nitro-",360.95,1,Cc1cccc(C)c1[N+](=O)[O-],le15,0,0,0,0
"Benzene, 1,2-dimethyl-3-nitro-",380.95,1,Cc1cccc([N+](=O)[O-])c1C,le15,0,0,0,0
"Benzene, 1,4-dimethyl-2-nitro-",373.15,1,Cc1ccc(C)c([N+](=O)[O-])c1,le15,0,0,0,0
"m-Xylene, 4-nitro- (8CI)",394.15,1,Cc1ccc([N+](=O)[O-])c(C)c1,le15,0,0,0,0
"o-Xylene, 4-nitro- (8CI)",394.65,1,Cc1ccc([N+](=O)[O-])cc1C,le15,0,0,0,0
"Benzene, 1-ethyl-4-nitro-",380.85,1,CCc1ccc([N+](=O)[O-])cc1,le15,0,0,0,0
"Acetamide, N-(4-hydroxyphenyl)-",461.55,1,CC(=O)Nc1ccc(O)cc1,le15,0,0,0,0
"Acetamide, N-(3-hydroxyphenyl)-",458.35,1,CC(=O)Nc1cccc(O)c1,le15,0,0,0,0
"Acetamide, 2-phenoxy-",474.05,1,NC(=O)COc1ccccc1,le15,0,0,0,0
"Acetic acid, (p-aminophenyl)-",435.05,1,Nc1ccc(CC(=O)O)cc1,le15,0,0,0,1
ethyl pyridine-4-carboxylate,362.15,1,CCOC(=O)c1ccncc1,le15,0,0,0,0
"Acetamide, N-hydroxy-N-phenyl-",389.95,1,CC(=O)N(O)c1ccccc1,le15,0,0,0,0
"Benzamide, 2-methoxy- (9CI)",428.85,1,COc1ccccc1C(N)=O,le15,0,0,0,0
3-Amino-p-toluic acid,446.45,1,Cc1ccc(C(=O)O)c(N)c1,le15,0,0,0,1
ethyl pyridine-2-carboxylate,380.35,1,CCOC(=O)c1ccccn1,le15,0,0,0,0
4-methoxybenzamide,434.65,1,COc1ccc(C(N)=O)cc1,le15,0,0,0,0
2-nitroethylbenzene,391.95,1,O=[N+]([O-])CCc1ccccc1,le15,0,0,0,0
"m-Xylene, 5-nitro- (8CI)",384.55,1,Cc1cc(C)cc([N+](=O)[O-])c1,le15,0,0,0,0
"Benzoic acid, 2-amino-, methyl ester",386.05,1,COC(=O)c1ccccc1N,le15,0,0,0,1
ethyl pyridine-3-carboxylate,366.15,1,CCOC(=O)c1cccnc1,le15,0,0,0,0
"Benzene, 1-ethoxy-4-nitroso-",388.25,1,CCOc1ccc(N=O)cc1,le15,0,0,0,0
"1,2-Benzisothiazol-3(2H)-one",350.65,1,O=c1[nH]sc2ccccc12,le15,0,0,0,0
"3H-1,3-benzothiazol-2-one",444.65,1,O=c1[nH]c2ccccc2s1,le15,0,0,0,0
"Ethanol, 2-(methylphenylamino)-",399.85,1,CN(CCO)c1ccccc1,le15,0,0,0,0
"Phenol, 3-(ethylamino)-4-methyl-",412.85,1,CCNc1cc(O)ccc1C,le15,0,0,0,0
"2-methoxy-N,N-dimethylaniline",332.35,1,COc1ccccc1N(C)C,le15,0,0,0,0
"Pyridine, 5-ethyl-2-hydroxyethyl-",383.85,1,CCc1ccc(CCO)nc1,le15,0,0,0,0
"Tricyclo(3.3.1.1(sup 3,7))decan-1-amine",369.15,1,NC12CC3CC(CC(C3)C1)C2,le15,0,0,0,0
"1,1,1-trichloro-2-fluoroethane",279.35,1,FCC(Cl)(Cl)Cl,le15,0,0,0,0
"1,1,2-trichloro-2-fluoroethane",283.35,1,FC(Cl)C(Cl)Cl,le15,0,0,0,0
"Acetonitrile, (p-chlorophenyl)-",406.15,1,N#CCc1ccc(Cl)cc1,le15,0,0,0,0
2-(chloromethyl)benzonitrile,379.35,1,N#Cc1ccccc1CCl,le15,0,0,0,0
4-(Chloromethyl)benzonitrile,393.35,1,N#Cc1ccc(CCl)cc1,le15,0,0,0,0
2-(2-chlorophenyl)acetonitrile,380.85,1,N#CCc1ccccc1Cl,le15,0,0,0,0
"Benzonitrile, 2-chloro-6-methyl-",383.25,1,Cc1cccc(Cl)c1C#N,le15,0,0,0,0
"Propanamide, 2-bromo- (9CI)",377.15,1,CC(Br)C(N)=O,le15,0,0,0,0
"7H-1,2,3-Triazolo(4,5-d)pyrimidin-7-one, 5-amino-1,4-dihydro- (9CI)",402.25,1,Nc1nc(=O)c2[nH]nnc2[nH]1,le15,0,0,0,0
"Benzoxazole, 2-amino-5-fluoro-",398.05,1,Nc1nc2cc(F)ccc2o1,le15,0,0,0,0
1-[ethoxy(methyl)phosphoryl]oxyethane,348.75,1,CCOP(C)(=O)OCC,le15,0,0,0,0
"Phosphonic acid, ethyl-, ethyl methyl ester",353.15,1,CCOP(=O)(CC)OC,le15,0,0,0,1
"Benzoic acid, 2-hydroxy-3-methyl-",418.55,1,Cc1cccc(C(=O)O)c1O,le15,0,0,0,1
4-methoxybenzoic acid,388.61,1,COc1ccc(C(=O)O)cc1,le15,0,0,0,1
"Benzoic acid, 2-hydroxy-, methyl ester",359.95,1,COC(=O)c1ccccc1O,le15,0,0,0,1
"Benzaldehyde, 4-hydroxy-3-methoxy-",390.75,1,COc1cc(C=O)ccc1O,le15,0,0,0,0
"Acetic acid, phenoxy-",388.25,1,O=C(O)COc1ccccc1,le15,0,0,0,1
"m-Anisaldehyde, 2-hydroxy- (8CI)",367.15,1,COc1cccc(C=O)c1O,le15,0,0,0,0
2-(2-hydroxyphenyl)acetic acid,435.75,1,O=C(O)Cc1ccccc1O,le15,0,0,0,1
"p-Anisaldehyde, 3-hydroxy- (8CI)",393.05,1,COc1ccc(C=O)cc1O,le15,0,0,0,0
2-hydroxy-5-methoxybenzaldehyde,381.25,1,COc1ccc(O)c(C=O)c1,le15,0,0,0,0
methyl 3-hydroxybenzoate,399.85,1,COC(=O)c1cccc(O)c1,le15,0,0,0,0
"Ethanone, 1-(2,4-dihydroxyphenyl)-",434.25,1,CC(=O)c1ccc(O)cc1O,le15,0,0,0,0
Xylitol,535.05,1,OC[C@H](O)[C@@H](O)[C@H](O)CO,le15,0,0,0,0
"Benzenamine, 4-methyl-2-nitro-",410.15,1,Cc1ccc(N)c([N+](=O)[O-])c1,le15,0,0,0,0
"Benzenamine, 2-methyl-4-nitro-",430.35,1,Cc1cc([N+](=O)[O-])ccc1N,le15,0,0,0,0
"Benzenamine, 4-methyl-3-nitro-",412.05,1,Cc1ccc(N)cc1[N+](=O)[O-],le15,0,0,0,0
"Benzenamine, 2-methyl-6-nitro- (9CI)",409.25,1,Cc1cccc([N+](=O)[O-])c1N,le15,0,0,0,0
5-Methyl-o-nitroaniline,415.95,1,Cc1ccc([N+](=O)[O-])c(N)c1,le15,0,0,0,0
"Benzenamine, 2-methyl-3-nitro- (9CI)",411.25,1,Cc1c(N)cccc1[N+](=O)[O-],le15,0,0,0,0
"Benzoic acid, 4-hydrazinyl-",455.05,1,NNc1ccc(C(=O)O)cc1,le15,0,0,0,1
"Benzenamine, 2-methyl-5-nitro-",426.15,1,Cc1ccc([N+](=O)[O-])cc1N,le15,0,0,0,0
"Aniline, N-methyl-p-nitro- (8CI)",402.65,1,CNc1ccc([N+](=O)[O-])cc1,le15,0,0,0,0
"6H-Purine-6-thione, 1,7-dihydro- (9CI)",528.55,1,S=c1[nH]cnc2nc[nH]c12,le15,0,0,0,0
"Hydroperoxide, alpha,alpha-dimethylbenzyl-",329.25,1,CC(C)(OO)c1ccccc1,le15,0,0,0,0
"Ethanol, 2-(phenylmethoxy)-",383.15,1,OCCOCc1ccccc1,le15,0,0,0,0
"1,4-Benzenediol, 2,3,5-trimethyl-",464.15,1,Cc1cc(O)c(C)c(C)c1O,le15,0,0,0,0
4-ethyl-2-methoxyphenol,380.85,1,CCc1ccc(O)c(OC)c1,le15,0,0,0,0
"Indan, 1,2:5,6-diepoxyhexahydro-",391.45,1,C1C2CC3OC3C2CC2OC12,le15,0,0,0,0
"1,3-dimethoxy-5-methylbenzene",374.85,1,COc1cc(C)cc(OC)c1,le15,0,0,0,0
"1,2-dimethoxy-3-methylbenzene",340.75,1,COc1cccc(C)c1OC,le15,0,0,0,0
"2,6-Dimethoxytoluene",369.85,1,COc1cccc(OC)c1C,le15,0,0,0,0
1-(2-methoxyphenyl)ethanol,383.95,1,COc1ccccc1C(C)O,le15,0,0,0,0
"1,2-dimethoxy-4-methylbenzene",358.15,1,COc1ccc(C)cc1OC,le15,0,0,0,0
"4-propan-2-ylbenzene-1,2-diol",402.35,1,CC(C)c1ccc(O)c(O)c1,le15,0,0,0,0
"1-Propanol, 2-phenoxy-",377.55,1,CC(CO)Oc1ccccc1,le15,0,0,0,0
2-propoxyphenol,370.35,1,CCCOc1ccccc1O,le15,0,0,0,0
"4(1H)-Pyrimidinone, 6-methyl-2-(1-methylethyl)-",366.35,1,Cc1cc(=O)nc(C(C)C)[nH]1,le15,0,0,0,0
"Toluene-2,5-diamine, 4-methoxy-",433.45,1,COc1cc(N)c(C)cc1N,le15,0,0,0,0
"1,3-Benzenediamine, 4-ethoxy- (9CI)",439.55,1,CCOc1ccc(N)cc1N,le15,0,0,0,0
"4-ethoxybenzene-1,2-diamine",436.95,1,CCOc1ccc(N)c(N)c1,le15,0,0,0,0
"Urea, 1-phenyl-2-thio-",388.25,1,NC(=S)Nc1ccccc1,le15,0,0,0,0
"Methanesulfonic acid, butyl ester",375.15,1,CCCCOS(C)(=O)=O,le15,0,0,0,1
tetramethyl silicate,302.05,1,CO[Si](OC)(OC)OC,le15,1,1,0,0
"Bicyclo(2.2.1)heptan-2-one, 1,7,7-trimethyl-",337.55,1,CC12CCC(CC1=O)C2(C)C,le15,0,0,0,0
"2-Cyclohexen-1-one, 3-methyl-6-(1-methylethyl)-",364.05,1,CC1=CC(=O)C(C(C)C)CC1,le15,0,0,0,0
"2-Cyclohexen-1-ol, 2-methyl-5-(1-methylethenyl)-",364.35,1,C=C(C)C1CC=C(C)C(O)C1,le15,0,0,0,0
"Bicyclo(2.2.1)heptan-2-one, 1,7,7-trimethyl-, (1S,4S)-",337.55,1,CC1(C)[C@H]2CC[C@]1(C)C(=O)C2,le15,0,0,0,0
"(1S,3R,5S)-2-methylidene-5-propan-2-ylbicyclo[3.1.0]hexan-3-ol",356.85,1,C=C1[C@H]2C[C@@]2(C(C)C)C[C@H]1O,le15,0,0,0,0
"6,6-Dimethyl-2-(hydroxymethyl)bicyclo[3.1.1]hept-2-ene",362.55,1,CC1(C)C2CC=C(CO)C1C2,le15,0,0,0,0
"Bicyclo(3.1.0)hexan-3-one, 4-methyl-1-(1-methylethyl)-, (1S,4R,5R)-",337.55,1,CC(C)[C@]12CC(=O)[C@H](C)[C@H]1C2,le15,0,0,0,0
"Bicyclo(2.2.1)heptan-2-one, 1,3,3-trimethyl-",325.95,1,CC12CCC(C1)C(C)(C)C2=O,le15,0,0,0,0
"2H-Pyran, 3,6-dihydro-4-methyl-2-(2-methylpropenyl)- (7CI)",343.95,1,CC(C)=CC1CC(C)=CCO1,le15,0,0,0,0
"4,7,7-trimethyl-6-oxabicyclo[3.2.1]oct-3-ene",336.35,1,CC1=CCC2CC1OC2(C)C,le15,0,0,0,0
"Cyclopentanone, 2-(3-methyl-2-buten-1-yl)-",353.65,1,CC(C)=CCC1CCCC1=O,le15,0,0,0,0
"Bicyclo(2.2.1)heptan-2-one, 1,3,3-trimethyl-, (1S,4R)-",325.95,1,CC1(C)C(=O)[C@@]2(C)CC[C@@H]1C2,le15,0,0,0,0
2-cyclopentylcyclopentan-1-one,363.45,1,O=C1CCCC1C1CCCC1,le15,0,0,0,0
"Cyclohexanone, 2-methyl-5-(1-methylethenyl)-",354.25,1,C=C(C)C1CCC(C)C(=O)C1,le15,0,0,0,0
"4,7,7-trimethylbicyclo[2.2.1]heptan-2-one",342.45,1,CC12CCC(C(=O)C1)C2(C)C,le15,0,0,0,0
4-propan-2-ylcyclohexene-1-carbaldehyde,356.75,1,CC(C)C1CC=C(C=O)CC1,le15,0,0,0,0
"2,6-Octadienal, 3,7-dimethyl-, (2E)-",374.85,1,CC(C)=CCC/C(C)=C/C=O,le15,0,0,0,0
"1-Cyclohexene-1-methanol, 4-(1-methylethenyl)-",372.75,1,C=C(C)C1CC=C(CO)CC1,le15,0,0,0,0
"Spiro(bicyclo(3.1.1)heptane-2,2'-oxirane), 6,6-dimethyl-",339.15,1,CC1(C)C2CCC3(CO3)C1C2,le15,0,0,0,0
"(1R,4S,5S)-4,6,6-trimethylbicyclo[3.1.1]heptan-3-one",345.95,1,C[C@@H]1C(=O)C[C@H]2C[C@@H]1C2(C)C,le15,0,0,0,0
Camphor,339.0,1,CC12CCC(CC1=O)C2(C)C,le15,0,0,0,0
1-ethylsulfanyl-4-methylbenzene,359.15,1,CCSc1ccc(C)cc1,le15,0,0,0,0
propan-2-ylsulfanylbenzene,356.35,1,CC(C)Sc1ccccc1,le15,0,0,0,0
Spiro(5.5)undecane,344.95,1,C1CCC2(CC1)CCCCC2,le15,0,0,0,0
undec-5-yne,338.75,1,CCCCC#CCCCCC,le15,0,0,0,0
undec-4-yne,338.75,1,CCCC#CCCCCCC,le15,0,0,0,0
1undecyne,338.0,1,C#CCCCCCCCCC,le15,0,0,0,0
"Benzonitrile, 2-amino-5-chloro-",402.85,1,N#Cc1cc(Cl)ccc1N,le15,0,0,0,0
"Benzene, 1-chloro-4-(1-methylethenyl)-",347.039,1,C=C(C)c1ccc(Cl)cc1,le15,0,0,0,0
[(E)-3-chloroprop-2-enyl]benzene,562.05,1,Cl/C=C/Cc1ccccc1,le15,0,0,0,0
"2-chloro-1,1-diethoxyethane",302.55,1,CCOC(CCl)OCC,le15,0,0,0,0
"2-Butenedioyl dichloride, (2E)-",346.15,1,O=C(Cl)/C=C/C(=O)Cl,le15,0,0,0,0
methyl 2-bromoacetate,335.95,1,COC(=O)CBr,le15,0,0,0,0
"Propanoic acid, 3-bromo-",371.85,1,O=C(O)CCBr,le15,0,0,0,1
2-bromopropanoic acid,349.45,1,CC(Br)C(=O)O,le15,0,0,0,1
1-bromo-2-ethoxyethane,294.15,1,CCOCCBr,le15,0,0,0,0
"2,5-dichlorothiophene",332.55,1,Clc1ccc(Cl)s1,le15,0,0,0,0
"trans-1,2-Dichlorocyclohexane",339.25,1,Cl[C@@H]1CCCC[C@H]1Cl,le15,0,0,0,0
"1,1-dichlorocyclohexane",339.15,1,ClC1(Cl)CCCCC1,le15,0,0,0,0
"(1R,2S)-1,2-dichlorocyclohexane",339.25,1,Cl[C@H]1CCCC[C@H]1Cl,le15,0,0,0,0
"Benzoic acid, 5-amino-2-hydroxy-",471.25,1,Nc1ccc(O)c(C(=O)O)c1,le15,0,0,0,1
"Benzene, 1-methoxy-4-nitro-",407.75,1,COc1ccc([N+](=O)[O-])cc1,le15,0,0,0,0
"Phenol, 4-methyl-2-nitro-",381.15,1,Cc1ccc(O)c([N+](=O)[O-])c1,le15,0,0,0,0
"Anthranilic acid, 3-hydroxy- (8CI)",442.75,1,Nc1c(O)cccc1C(=O)O,le15,0,0,0,1
"Benzenemethanol, 2-nitro- (9CI)",404.25,1,O=[N+]([O-])c1ccccc1CO,le15,0,0,0,0
"Benzenemethanol, 3-nitro-",419.35,1,O=[N+]([O-])c1cccc(CO)c1,le15,0,0,0,0
"Benzenemethanol, 4-nitro-",421.25,1,O=[N+]([O-])c1ccc(CO)cc1,le15,0,0,0,0
"Phenol, 5-methyl-2-nitro-",382.15,1,Cc1ccc([N+](=O)[O-])c(O)c1,le15,0,0,0,0
3-Nitro-p-cresol,398.35,1,Cc1ccc(O)cc1[N+](=O)[O-],le15,0,0,0,0
"Phenol, 3-methyl-4-nitro-",383.15,1,Cc1cc(O)ccc1[N+](=O)[O-],le15,0,0,0,0
"Phenol, 3-methyl-2-nitro- (9CI)",380.15,1,Cc1cccc(O)c1[N+](=O)[O-],le15,0,0,0,0
"Phenol, 2-methyl-5-nitro-",407.35,1,Cc1ccc([N+](=O)[O-])cc1O,le15,0,0,0,0
3-Nitro-o-cresol,394.95,1,Cc1c(O)cccc1[N+](=O)[O-],le15,0,0,0,0
"Benzene, 1-methoxy-2-nitro-",415.15,1,COc1ccccc1[N+](=O)[O-],le15,0,0,0,0
"1,2-Benzenediamine, 4-nitro-",481.65,1,Nc1ccc([N+](=O)[O-])cc1N,le15,0,0,0,0
"Hydrazine, (4-nitrophenyl)-",434.95,1,NNc1ccc([N+](=O)[O-])cc1,le15,0,0,0,0
"1,4-Benzenediamine, 2-nitro-",460.05,1,Nc1ccc(N)c([N+](=O)[O-])c1,le15,0,0,0,0
"1,2-Benzenediamine, 3-nitro- (9CI)",450.55,1,Nc1cccc([N+](=O)[O-])c1N,le15,0,0,0,0
"1,3-Benzenediamine, 4-nitro-",487.15,1,Nc1ccc([N+](=O)[O-])c(N)c1,le15,0,0,0,0
"Acetamide, 2-fluoro-N-phenyl- (9CI)",418.25,1,O=C(CF)Nc1ccccc1,le15,0,0,0,0
naphthalene-1-carbonitrile,413.85,1,N#Cc1cccc2ccccc12,le15,0,0,0,0
1-fluoro-3-isothiocyanatobenzene,358.15,1,Fc1cccc(N=C=S)c1,le15,0,0,0,0
1-fluoro-4-isothiocyanatobenzene,362.55,1,Fc1ccc(N=C=S)cc1,le15,0,0,0,0
"2,5-dimethoxyaniline",403.25199999999995,1,COc1ccc(OC)c(N)c1,le15,0,0,0,0
"Benzyl alcohol, alpha-(aminomethyl)-m-hydroxy-",445.15,1,NCC(O)c1cccc(O)c1,le15,0,0,0,0
"2,4-Dimethoxyaniline hydrochloride",397.95,1,COc1ccc(N)c(OC)c1.Cl,le15,0,0,0,0
"Benzenemethanol, alpha-(aminomethyl)-4-hydroxy-",445.15,1,NCC(O)c1ccc(O)cc1,le15,0,0,0,0
9-methyl-9-azabicyclo[3.3.1]nonan-3-one,369.05,1,CN1C2CCCC1CC(=O)C2,le15,0,0,0,0
decanenitrile,365.15,1,CCCCCCCCCC#N,le15,0,0,0,0
"Isocyanic acid, m-chlorophenyl ester",355.15,1,O=C=Nc1cccc(Cl)c1,le15,0,0,0,1
1-chloro-2-isocyanatobenzene,361.15,1,O=C=Nc1ccccc1Cl,le15,0,0,0,0
"2-chloro-1,3-benzoxazole",358.15,1,Clc1nc2ccccc2o1,le15,0,0,0,0
iodoethene,279.35,1,C=CI,le15,0,0,0,0
"1,1,1-trifluoropentane-2,4-dione",299.25,1,CC(=O)CC(=O)C(F)(F)F,le15,0,0,0,0
"Benzoic acid, 2,4-dihydroxy-",491.95,1,O=C(O)c1ccc(O)cc1O,le15,0,0,0,1
"Benzoic acid, 3,4-dihydroxy- (9CI)",489.45,1,O=C(O)c1ccc(O)c(O)c1,le15,0,0,0,1
"4,6-Dihydro-4-hydroxy-2H-furo(3,2-c)pyran-2-one",499.95,1,O=C1C=C2C(=CCOC2O)O1,le15,0,0,0,0
"Benzoic acid, 2,5-dihydroxy-",487.15,1,O=C(O)c1cc(O)ccc1O,le15,0,0,0,1
"Benzaldehyde, 2,3,4-trihydroxy-",423.75,1,O=Cc1ccc(O)c(O)c1O,le15,0,0,0,0
"Benzaldehyde, 2,4,6-trihydroxy-",434.15,1,O=Cc1c(O)cc(O)cc1O,le15,0,0,0,0
"Phenol, 2-amino-4-nitro-",449.55,1,Nc1cc([N+](=O)[O-])ccc1O,le15,0,0,0,0
"Phenol, 4-amino-2-nitro-",429.25,1,Nc1ccc(O)c([N+](=O)[O-])c1,le15,0,0,0,0
2-Amino-3-nitrophenol,417.95,1,Nc1c(O)cccc1[N+](=O)[O-],le15,0,0,0,0
2-Nitro-6-aminophenol,396.45,1,Nc1cccc([N+](=O)[O-])c1O,le15,0,0,0,0
"Phosphorodiamidic fluoride, tetramethyl-",321.85,1,CN(C)P(=O)(F)N(C)C,le15,0,0,0,0
"Aniline, p-fluoro-N-methyl-N-nitroso-",391.25,1,CN(N=O)c1ccc(F)cc1,le15,0,0,0,0
"Phenol, 2,6-dimethoxy-",373.05,1,COc1cccc(OC)c1O,le15,0,0,0,0
"Benzenemethanol, 4-hydroxy-3-methoxy-",416.35,1,COc1cc(CO)ccc1O,le15,0,0,0,0
"Phenol, 3,5-dimethoxy- (8CI)(9CI)",351.15,1,COc1cc(O)cc(OC)c1,le15,0,0,0,0
furan-2-ylmethyl propanoate,354.85,1,CCC(=O)OCc1ccco1,le15,0,0,0,0
"2-Butenoic acid, anhydride",383.75,1,CC=CC(=O)OC(=O)C=CC,le15,0,0,0,1
"Propanedinitrile, (phenylmethylene)- (9CI)",411.15,1,N#CC(C#N)=Cc1ccccc1,le15,0,0,0,0
"Cinchoninonitrile(6CI,7CI,8CI)",368.35,1,N#Cc1ccnc2ccccc12,le15,0,0,0,0
"2-Propenamide, N,N'-methylenebis-",488.15,1,C=CC(=O)NCNC(=O)C=C,le15,0,0,0,0
"Phosphonothioic acid, ethyl-, O-ethyl ester",354.05,1,CCOP([O-])(=S)CC,le15,0,0,0,1
"1,3,5-Triazin-2-amine, 4-methoxy-N,6-dimethyl-",411.35,1,CNc1nc(C)nc(OC)n1,le15,0,0,0,0
DiethylSulfate,377.0,1,CCOS(=O)(=O)OCC,le15,0,0,0,0
"Acenaphthylene, 1,2-dihydro-",408.15,1,c1cc2c3c(cccc3c1)CC2,le15,0,0,0,0
Biphenyl,386.0,1,c1ccc(-c2ccccc2)cc1,le15,0,0,0,0
"2-Octynoic acid, methyl ester",362.05,1,CCCCCC#CC(=O)OC,le15,0,0,0,1
"2-Propenoic acid, cyclohexyl ester",344.45,1,C=CC(=O)OC1CCCCC1,le15,0,0,0,1
"2H-1-Benzopyran-2-one, octahydro-",382.15,1,O=C1CCC2CCCCC2O1,le15,0,0,0,0
"1,2,3,3a,4,5,6,6a-octahydropentalene-1-carboxylic acid",396.85,1,O=C(O)C1CCC2CCCC21,le15,0,0,0,1
2-(butoxymethyl)furan,347.75,1,CCCCOCc1ccco1,le15,0,0,0,0
2-Nonynoic acid,405.95,1,CCCCCCC#CC(=O)O,le15,0,0,0,1
Methyl2octynoate,361.0,1,CCCCCC#CC(=O)OC,le15,0,0,0,0
"Phenol, 3-methyl-4-(methylthio)-",401.85,1,CSc1ccc(O)cc1C,le15,0,0,0,0
"Cyclohexanone, 4-(1,1-dimethylethyl)-",369.25,1,CC(C)(C)C1CCC(=O)CC1,le15,0,0,0,0
"6-Octenal, 3,7-dimethyl-",348.75,1,CC(C)=CCCC(C)CC=O,le15,0,0,0,0
"2,6-Octadien-1-ol, 3,7-dimethyl-, (2Z)-",372.65,1,CC(C)=CCC/C(C)=C\CO,le15,0,0,0,0
"Bicyclo(2.2.1)heptan-2-ol, 1,7,7-trimethyl-, (1R,2R,4R)-rel-",347.15,1,CC1(C)[C@@H]2CC[C@@]1(C)[C@H](O)C2,le15,0,0,0,0
"Bicyclo(2.2.1)heptan-2-ol, 1,7,7-trimethyl-, (1S,2R,4S)-",338.15,1,CC1(C)[C@H]2CC[C@]1(C)[C@H](O)C2,le15,0,0,0,0
"Bicyclo(2.2.1)heptan-2-ol, 1,7,7-trimethyl-, (1R,2S,4R)-rel-",338.75,1,CC1(C)[C@@H]2CC[C@@]1(C)[C@@H](O)C2,le15,0,0,0,0
2-methyl-5-propan-2-ylbicyclo[3.1.0]hexan-3-ol,356.85,1,CC1C(O)CC2(C(C)C)CC12,le15,0,0,0,0
"3-Cyclohexen-1-ol, 4-methyl-1-(1-methylethyl)-",355.15,1,CC1=CCC(O)(C(C)C)CC1,le15,0,0,0,0
6-methyl-3-propan-2-ylcyclohex-2-en-1-ol,362.95,1,CC(C)C1=CC(O)C(C)CC1,le15,0,0,0,0
"Cyclohexanol, 2-methyl-5-(1-methylethenyl)-",364.85,1,C=C(C)C1CCC(C)C(O)C1,le15,0,0,0,0
"Cyclohexanecarboxaldehyde, 3,3,5-trimethyl-",336.95,1,CC1CC(C=O)CC(C)(C)C1,le15,0,0,0,0
"Ethanol, 2,2'-dithiobis-",422.45,1,OCCSSCCO,le15,0,0,0,0
2-Decyn-1-ol,331.55,1,CCCCCCCC#CCO,le15,0,0,0,0
2-cyclopentylcyclopentan-1-ol,375.05,1,OC1CCCC1C1CCCC1,le15,0,0,0,0
"(2S,5R)-5-methyl-2-propan-2-ylcyclohexan-1-one",345.95,1,CC(C)[C@@H]1CC[C@@H](C)CC1=O,le15,0,0,0,0