compound,flashpoint,pure substance,smiles,source,is_silicon,is_metallic,is_tin,is_acid
"(1R,3S)-3-methylcyclohexan-1-ol",335.95,1,C[C@H]1CCC[C@@H](O)C1,le15,0,0,0,0
"3-Hexanone, 2-methyl-",297.05,1,CCCC(=O)C(C)C,le15,0,0,0,0
(1R)-3-methylcyclohexan-1-ol,335.95,1,CC1CCC[C@@H](O)C1,le15,0,0,0,0
"(1R,2S)-2-methylcyclohexan-1-ol",332.05,1,C[C@H]1CCCC[C@H]1O,le15,0,0,0,0
4-methylhexan-3-one,304.15,1,CCC(=O)C(C)CC,le15,0,0,0,0
3-methylhexanal,305.75,1,CCCC(C)CC=O,le15,0,0,0,0
"2-Hepten-1-ol, (E)- (8CI)(9CI)",341.65,1,CCCC/C=C/CO,le15,0,0,0,0
1-methylcyclohexan-1-ol,340.92800000000005,1,CC1(O)CCCCC1,le15,0,0,0,0
5-methylhexan-3-one,304.15,1,CCC(=O)CC(C)C,le15,0,0,0,0
hept-1-en-4-ol,329.55,1,C=CCC(O)CCC,le15,0,0,0,0
2methylcyclohexanol,331.0,1,CC1CCCCC1O,le15,0,0,0,0
3methylcyclohexanol,335.0,1,CC1CCCC(O)C1,le15,0,0,0,0
Cycloheptanol,344.0,1,OC1CCCCCC1,le15,0,0,0,0
Heptanal,314.0,1,CCCCCCC=O,le15,0,0,0,0
"Piperazine, 2,5-dimethyl-",331.45,1,CC1CNC(C)CN1,le15,0,0,0,0
piperidin-4-ylmethanamine,351.15,1,NCC1CCNCC1,le15,0,0,0,0
"1-Propene, 3,3'-thiobis-",319.25,1,C=CCSCC=C,le15,0,0,0,0
"3,3-dimethylhexane",282.45,1,CCCC(C)(C)CC,le15,0,0,0,0
"2,2,3-trimethylpentane",281.85,1,CCC(C)C(C)(C)C,le15,0,0,0,0
"3,4-dimethylhexane",304.75,1,CCC(C)C(C)CC,le15,0,0,0,0
4-methylheptane,279.85,1,CCCC(C)CCC,le15,0,0,0,0
"2,5-dimethylhexane",299.85,1,CC(C)CCC(C)C,le15,0,0,0,0
"2,2,3,3-tetramethylbutane",277.55,1,CC(C)(C)C(C)(C)C,le15,0,0,0,0
Octane,286.15,1,CCCCCCCC,le15,0,0,0,0
"2,3,3-trimethylpentane",284.55,1,CCC(C)(C)C(C)C,le15,0,0,0,0
"2,3,4-trimethylpentane",278.15,1,CC(C)C(C)C(C)C,le15,0,0,0,0
3-ethyl-3-methylpentane,286.25,1,CCC(C)(CC)CC,le15,0,0,0,0
2methylheptane,277.0,1,CCCCCC(C)C,le15,0,0,0,0
3ethylhexane,279.0,1,CCCC(CC)CC,le15,0,0,0,0
3methylheptane,280.0,1,CCCCC(C)CC,le15,0,0,0,0
Isooctane,261.0,1,CC(C)CC(C)(C)C,le15,0,0,0,0
trimethyl(prop-2-enyl)silane,280.35,1,C=CC[Si](C)(C)C,le15,1,1,0,0
2-chloropyrazine,330.15,1,Clc1cnccn1,le15,0,0,0,0
Methanesulphonyl chloride,315.35,1,CS(=O)(=O)Cl,le15,0,0,0,0
"Ether, bis(chloromethyl)",348.05,1,ClCOCCl,le15,0,0,0,0
"Ethanol, 2,2-dichloro-",351.45,1,OCC(Cl)Cl,le15,0,0,0,0
Carbonothioic dichloride,335.15,1,S=C(Cl)Cl,le15,0,0,0,0
"Silane, dichloromethyl-",240.95,1,[SiH3]C(Cl)Cl,le15,1,1,0,0
"Pyridine, 2,6-difluoro-",307.05,1,Fc1cccc(F)n1,le15,0,0,0,0
"Succinimide, N-hydroxy- (8CI)",385.65,1,O=C1CCC(=O)N1O,le15,0,0,0,0
"Acrylamide, N-(hydroxymethyl)-2-methyl- (6CI,8CI)",412.15,1,C=C(C)C(=O)NCO,le15,0,0,0,0
N-acetyl-N-methylacetamide,339.65,1,CC(=O)N(C)C(C)=O,le15,0,0,0,0
"Piperazine, 1-nitroso-",386.95,1,O=NN1CCNCC1,le15,0,0,0,0
"3(2H)-Isothiazolone, 2-methyl-",337.45,1,Cn1sccc1=O,le15,0,0,0,0
1-methylpiperidin-4-ol,360.95,1,CN1CCC(O)CC1,le15,0,0,0,0
"Morpholine, 2,6-dimethyl-",317.55,1,CC1CNCC(C)O1,le15,0,0,0,0
Hexanamide,375.374,1,CCCCCC(N)=O,le15,0,0,0,0
"Acetamide, N,N-diethyl-",342.45,1,CCN(CC)C(C)=O,le15,0,0,0,0
N-butylacetamide,387.65,1,CCCCNC(C)=O,le15,0,0,0,0
"Ethylamine, N,N-dimethyl-2-(vinyloxy)- (6CI,7CI,8CI)",301.55,1,C=COCCN(C)C,le15,0,0,0,0
"Morpholine, 4-ethyl-",300.95,1,CCN1CCOCC1,le15,0,0,0,0
4-amino-4-methylpentan-2-one,329.35,1,CC(=O)CC(C)(C)N,le15,0,0,0,0
"Guanidine, 1,1,3,3-tetramethyl- (8CI)",333.15,1,CN(C)C(=N)N(C)C,le15,0,0,0,0
2-isothiocyanato-2-methylpropane,311.45,1,CC(C)(C)N=C=S,le15,0,0,0,0
1-isothiocyanato-2-methylpropane,317.35,1,CC(C)CN=C=S,le15,0,0,0,0
butyl thiocyanate,338.05,1,CCCCSC#N,le15,0,0,0,0
"Silane, azidotrimethyl-",279.15,1,C[Si](C)(C)N=[N+]=[N-],le15,1,1,0,0
heptan-2-amine,327.15,1,CCCCCC(C)N,le15,0,0,0,0
"1-Butanamine, N,N,3-trimethyl-",283.15,1,CC(C)CCN(C)C,le15,0,0,0,0
"Propylamine, N-ethyl-1,2-dimethyl- (7CI)",278.75,1,CCNC(C)C(C)C,le15,0,0,0,0
heptan-4-amine,314.45,1,CCCC(N)CCC,le15,0,0,0,0
4-methylhexan-2-amine,302.05,1,CCC(C)CC(C)N,le15,0,0,0,0
1-Heptanamine,317.15,1,CCCCCCCN,le15,0,0,0,0
"Formamide, 1,1'-azobis-",399.15,1,NC(=O)N=NC(N)=O,le15,0,0,0,0
2-oxopropyl acetate,325.05,1,CC(=O)COC(C)=O,le15,0,0,0,0
"1,3-Dioxolan-2-one, 4-ethyl-",401.55,1,CCC1COC(=O)O1,le15,0,0,0,0
"Morpholine, N-nitroso-",363.65,1,O=NN1CCOCC1,le15,0,0,0,0
"Hydrazine, 1,2-diacetyl- (8CI)",456.45,1,CC(=O)NNC(C)=O,le15,0,0,0,0
prop-1-ynylbenzene,335.37199999999996,1,CC#Cc1ccccc1,le15,0,0,0,0
1-ethynyl-4-methylbenzene,322.039,1,C#Cc1ccc(C)cc1,le15,0,0,0,0
1H-Indene,331.15,1,C1=Cc2ccccc2C1,le15,0,0,0,0
"2H-Pyran-2-methanol, tetrahydro-",366.45,1,OCC1CCCCO1,le15,0,0,0,0
"1-Butanol, 3-methyl-, formate",295.45,1,CC(C)CCOC=O,le15,0,0,0,0
"2-Pentanone, 4-hydroxy-4-methyl-",331.15,1,CC(=O)CC(C)(C)O,le15,0,0,0,0
"1,3-Dioxolane, 2-ethyl-2-methyl-",286.15,1,CCC1(C)OCCO1,le15,0,0,0,0
methyl 3-methylbutanoate,292.55,1,COC(=O)CC(C)C,le15,0,0,0,0
propan-2-yl propanoate,292.55,1,CCC(=O)OC(C)C,le15,0,0,0,0
"Oxirane, ((1-methylethoxy)methyl)-",306.45,1,CC(C)OCC1CO1,le15,0,0,0,0
2-(methoxymethyl)oxolane,306.45,1,COCC1CCCO1,le15,0,0,0,0
6-hydroxyhexan-2-one,365.35,1,CC(=O)CCCCO,le15,0,0,0,0
"methyl 2,2-dimethylpropanoate",279.85,1,COC(=O)C(C)(C)C,le15,0,0,0,0
2ethylbutyricacid,360.0,1,CCC(CC)C(=O)O,le15,0,0,0,1
IsopropylGlycidylEther,306.0,1,CC(C)OCC1CO1,le15,0,0,0,0
Methylvalerate,295.0,1,CCCCC(=O)OC,le15,0,0,0,0
secButylacetate,289.0,1,CCC(C)OC(C)=O,le15,0,0,0,0
tertButylacetate,288.0,1,CC(=O)OC(C)(C)C,le15,0,0,0,0
"Urea, butyl-",335.45,1,CCCCNC(N)=O,le15,0,0,0,0
"1,3-diethylurea",394.25,1,CCNC(=O)NCC,le15,0,0,0,0
"Urea, 1,1,3,3-tetramethyl-",327.05,1,CN(C)C(=O)N(C)C,le15,0,0,0,0
"2-Tetrazene, 1,1,4,4-tetramethyl-",535.55,1,CN(C)N=NN(C)C,le15,0,0,0,0
4-Heptanol,334.95,1,CCCC(O)CCC,le15,0,0,0,0
3-Heptanol,327.55,1,CCCCC(O)CC,le15,0,0,0,0
"2,3,3-trimethylbutan-2-ol",306.75,1,CC(C)(C)C(C)(C)O,le15,0,0,0,0
"2,3-dimethylpentan-3-ol",313.75,1,CCC(C)(O)C(C)C,le15,0,0,0,0
3-ethylpentan-3-ol,313.15,1,CCC(O)(CC)CC,le15,0,0,0,0
3-methylhexan-3-ol,322.55,1,CCCC(C)(O)CC,le15,0,0,0,0
2-methylhexan-3-ol,313.70599999999996,1,CCCC(O)C(C)C,le15,0,0,0,0
2-ethoxy-2-methylbutane,278.15,1,CCOC(C)(C)CC,le15,0,0,0,0
1-propan-2-yloxybutane,280.45,1,CCCCOC(C)C,le15,0,0,0,0
1-propoxybutane,288.75,1,CCCCOCCC,le15,0,0,0,0
"2,2-dimethylpentan-3-ol",311.45,1,CCC(O)C(C)(C)C,le15,0,0,0,0
1-methoxyhexane,294.15,1,CCCCCCOC,le15,0,0,0,0
2-methyl-1-propoxypropane,282.15,1,CCCOCC(C)C,le15,0,0,0,0
1-ethoxypentane,289.55,1,CCCCCOCC,le15,0,0,0,0
"3-Pentanol, 2,4-dimethyl-",310.15,1,CC(C)C(O)C(C)C,le15,0,0,0,0
2-methylhexan-1-ol,334.95,1,CCCCC(C)CO,le15,0,0,0,0
2heptanol,344.0,1,CCCCCC(C)O,le15,0,0,0,0
"1,2-Ethanediamine, N,N-diethyl-",303.75,1,CCN(CC)CCN,le15,0,0,0,0
"N-ethyl-N',N'-dimethylethane-1,2-diamine",297.05,1,CCNCCN(C)C,le15,0,0,0,0
Hexamethylenediamine,367.15,1,NCCCCCCN,le15,0,0,0,0
"Hydrazine, 1,1-bis(1-methylethyl)- (9CI)",303.45,1,CC(C)N(N)C(C)C,le15,0,0,0,0
thiepane,324.85,1,C1CCCSCC1,le15,0,0,0,0
Cyclohexanethiol,316.0,1,SC1CCCCC1,le15,0,0,0,0
"1-chloro-1,2,2-trifluoroethene",245.15,1,FC(F)=C(F)Cl,le15,0,0,0,0
"Benzonitrile, 4-methyl-",358.786,1,Cc1ccc(C#N)cc1,le15,0,0,0,0
"Acetonitrile, phenyl-",374.15,1,N#CCc1ccccc1,le15,0,0,0,0
1H-Indole,380.98900000000003,1,c1ccc2[nH]ccc2c1,le15,0,0,0,0
"Benzonitrile, 2-methyl-",358.15,1,Cc1ccccc1C#N,le15,0,0,0,0
"Benzonitrile, 3-methyl-",359.85,1,Cc1cccc(C#N)c1,le15,0,0,0,0
Benzylcyanide,374.0,1,N#CCc1ccccc1,le15,0,0,0,0
Valine,356.158,1,CC(C)[C@H](N)C(=O)O,le15,0,0,0,0
"Pentane, 3-nitro-",319.25,1,CCC(CC)[N+](=O)[O-],le15,0,0,0,0
ethyl N-ethylcarbamate,348.75,1,CCNC(=O)OCC,le15,0,0,0,0
"Ethanol, 2-(diethylamino)-",322.05,1,CCN(CC)CCO,le15,0,0,0,0
"Ethanol, 2-(butylamino)-",352.45,1,CCCCNCCO,le15,0,0,0,0
"1-Hexanol, 6-amino- (8CI)(9CI)",346.65,1,NCCCCCCO,le15,0,0,0,0
"Ethanol, 2-((1,1-dimethylethyl)amino)-",342.05,1,CC(C)(C)NCCO,le15,0,0,0,0
"1-Hexanol, 2-amino-",373.15,1,CCCCC(N)CO,le15,0,0,0,0
"1-Pentanol, 2-amino-4-methyl-, (S)-",363.75,1,CC(C)C[C@H](N)CO,le15,0,0,0,0
2-(2-methylpropylamino)ethanol,345.25,1,CC(C)CNCCO,le15,0,0,0,0
N-methyl-N-trimethylsilylmethanamine,254.15,1,CN(C)[Si](C)(C)C,le15,1,1,0,0
"Pentanenitrile, 5-chloro-",371.45,1,N#CCCCCCl,le15,0,0,0,0
dimethyl oxalate,348.15,1,COC(=O)C(=O)OC,le15,0,0,0,0
"Ethylene glycol, diformate",359.35,1,O=COCCOC=O,le15,0,0,0,0
"Glycine, N-carbamoyl- (7CI,8CI)",424.65,1,NC(=O)NCC(=O)O,le15,0,0,0,0
"Propane, 2-nitro-2-nitroso-",309.25,1,CC(C)(N=O)[N+](=O)[O-],le15,0,0,0,0
"Guanidine, N-methyl-N'-nitro- (9CI)",378.55,1,CNC(=N)N[N+](=O)[O-],le15,0,0,0,0
Benzofuran,329.0,1,c1ccc2occc2c1,le15,0,0,0,0
1H-Benzimidazole,481.589,1,c1ccc2[nH]cnc2c1,le15,0,0,0,0
2-aminobenzonitrile,395.35,1,N#Cc1ccccc1N,le15,0,0,0,0
methyl 2-hydroxy-2-methylpropanoate,309.95,1,COC(=O)C(C)(C)O,le15,0,0,0,0
"Benzonitrile, 3-amino- (9CI)",385.15,1,N#Cc1cccc(N)c1,le15,0,0,0,0
methyl 3-methoxypropanoate,320.15,1,COCCC(=O)OC,le15,0,0,0,0
ethyl 2-methoxyacetate,319.25,1,CCOC(=O)COC,le15,0,0,0,0
"Ethanol, 2-methoxy-, acetate",317.05,1,COCCOC(C)=O,le15,0,0,0,0
1H-indazole,401.65,1,c1ccc2[nH]ncc2c1,le15,0,0,0,0
"Benzonitrile, p-amino- (8CI)",400.25,1,N#Cc1ccc(N)cc1,le15,0,0,0,0
DiethylCarbonate,298.0,1,CCOC(=O)OCC,le15,0,0,0,0
"Ethene, 1,1'-sulfonylbis-",375.15,1,C=CS(=O)(=O)C=C,le15,0,0,0,0
"Thiophene, 2,5-dihydro-, 1,1-dioxide",385.15,1,O=S1(=O)CC=CC1,le15,0,0,0,0
triethylphosphane,255.95,1,CCP(CC)CC,le15,0,0,0,0
"Acetamide, N-(aminothioxomethyl)-",353.15,1,CC(=O)NC(N)=S,le15,0,0,0,0
"Benzene, (1-methylethenyl)-",318.70599999999996,1,C=C(C)c1ccccc1,le15,0,0,0,0
1-ethenyl-3-methylbenzene,320.55,1,C=Cc1cccc(C)c1,le15,0,0,0,0
"Benzene, 2-propenyl-",306.45,1,CC=Cc1ccccc1,le15,0,0,0,0
"1H-Indene, 2,3-dihydro-",323.15,1,c1ccc2c(c1)CCC2,le15,0,0,0,0
"Benzene, 1-ethenyl-4-methyl-",321.85,1,C=Cc1ccc(C)cc1,le15,0,0,0,0
cyclopropylbenzene,317.05,1,c1ccc(C2CC2)cc1,le15,0,0,0,0
"Benzene, 1-propenyl-, (Z)-",322.55,1,C/C=C\c1ccccc1,le15,0,0,0,0
3methylstyrene,324.0,1,C=Cc1cccc(C)c1,le15,0,0,0,0
4methylstyrene,318.0,1,C=Cc1ccc(C)cc1,le15,0,0,0,0
"2,3-dimethylbutane-2,3-diol",350.35,1,CC(C)(O)C(C)(C)O,le15,0,0,0,0
"2-ethyl-2-methylpropane-1,3-diol",369.25,1,CCC(C)(CO)CO,le15,0,0,0,0
"2,4-Pentanediol, 2-methyl-",367.05,1,CC(O)CC(C)(C)O,le15,0,0,0,0
"1-Propanol, 3-(1-methylethoxy)- (9CI)",328.35,1,CC(C)OCCCO,le15,0,0,0,0
"1-Butanol, 4-ethoxy-",330.05,1,CCOCCCCO,le15,0,0,0,0
"Ethanol, 2-butoxy-",333.15,1,CCCCOCCO,le15,0,0,0,0
"1,3-Pentanediol, 2-methyl-",381.65,1,CCC(O)C(C)CO,le15,0,0,0,0
"Ethane, 1,2-diethoxy-",293.75,1,CCOCCOCC,le15,0,0,0,0
"2-Propanol, 1-propoxy-",321.15,1,CCCOCC(C)O,le15,0,0,0,0
"Ethanol, 2-(2-methylpropoxy)-",323.55,1,CC(C)COCCO,le15,0,0,0,0
"3-methylpentane-2,4-diol",364.45,1,CC(O)C(C)C(C)O,le15,0,0,0,0
"1,2-Hexanediol",395.15,1,CCCCC(O)CO,le15,0,0,0,0
"1,3-Butanediol, 2,2-dimethyl-",360.75,1,CC(O)C(C)(C)CO,le15,0,0,0,0
"2,4-Hexanediol",374.15,1,CCC(O)CC(C)O,le15,0,0,0,0
1-propan-2-yloxypropan-2-ol,321.35,1,CC(O)COC(C)C,le15,0,0,0,0
"Ethanol, 2-sec-butoxy-",323.35,1,CCC(C)OCCO,le15,0,0,0,0
"Sulfide, methylvinyloxyethyl-",319.05,1,CC=COCCSCCOC=CC,le15,0,0,0,0
1fluoroheptane,286.0,1,CCCCCCCF,le15,0,0,0,0
1-Hexanethiol,303.15,1,CCCCCCS,le15,0,0,0,0
Propyl sulfide (8CI),301.45,1,CCCSCCC,le15,0,0,0,0
2-propan-2-ylsulfanylpropane,280.15,1,CC(C)SC(C)C,le15,0,0,0,0
1-propan-2-ylsulfanylpropane,296.15,1,CCCSC(C)C,le15,0,0,0,0
1-methylsulfanylpentane,312.85,1,CCCCCSC,le15,0,0,0,0
ethoxy(trimethyl)silane,255.15,1,CCO[Si](C)(C)C,le15,1,1,0,0
3-methylbut-2-enoyl chloride,324.15,1,CC(C)=CC(=O)Cl,le15,0,0,0,0
2-chlorothiophene,295.15,1,Clc1cccs1,le15,0,0,0,0
"Cyclohexane, chloro-",301.15,1,ClC1CCCCC1,le15,0,0,0,0
"1-Propyne, 3-bromo-",290.25,1,C#CCBr,le15,0,0,0,0
"2,1-benzoxazole",367.05,1,c1ccc2nocc2c1,le15,0,0,0,0
"1,3-benzoxazole",338.45,1,c1ccc2ocnc2c1,le15,0,0,0,0
"Benzonitrile, 4-hydroxy-",397.05,1,N#Cc1ccc(O)cc1,le15,0,0,0,0
"Benzonitrile, 3-hydroxy-",380.75,1,N#Cc1cccc(O)c1,le15,0,0,0,0
(E)-3-(furan-2-yl)prop-2-enenitrile,360.35,1,N#C/C=C/c1ccco1,le15,0,0,0,0
1H-Benzotriazole,407.05,1,c1ccc2[nH]nnc2c1,le15,0,0,0,0
2-methylpropyl nitrate,314.05,1,CC(C)CO[N+](=O)[O-],le15,0,0,0,0
butan-2-yl nitrate,314.05,1,CCC(C)O[N+](=O)[O-],le15,0,0,0,0
"Ethanol, 2-methoxy-, carbamate",404.15,1,COCCOC(N)=O,le15,0,0,0,0
"Hydrazinecarbothioamide, 1-formyl- (9CI)",364.65,1,NC(=S)N(N)C=O,le15,0,0,0,0
"Pyridine, 5-ethenyl-2-methyl-",329.75,1,C=Cc1ccc(C)nc1,le15,0,0,0,0
"2,3-dihydro-1H-indole",365.95,1,c1ccc2c(c1)CCN2,le15,0,0,0,0
N-methyl-1-phenylmethanimine,386.15,1,CN=Cc1ccccc1,le15,0,0,0,0
"Benzenamine, 4-ethenyl-",381.75,1,C=Cc1ccc(N)cc1,le15,0,0,0,0
"Ethanol, 2,2'-(methylimino)bis-",399.85,1,CN(CCO)CCO,le15,0,0,0,0
"2,2-dimethoxy-N-methylethanamine",302.55,1,CNCC(OC)OC,le15,0,0,0,0
MethylDiethanolAmine,411.0,1,CN(CCO)CCO,le15,0,0,0,0
2-Thiazolidinethione,341.25,1,S=C1NCCS1,le15,0,0,0,0
"Acetonitrile, bromo-",297.45,1,N#CCBr,le15,0,0,0,0
trimethylarsane,373.15,1,C[As](C)C,le15,0,1,0,0
"1,1-dinitroethane",352.15,1,CC([N+](=O)[O-])[N+](=O)[O-],le15,0,0,0,0
"Urea, 1,3-bis(hydroxymethyl)- (8CI)",505.45,1,O=C(NCO)NCO,le15,0,0,0,0
"Benzene, (epoxyethyl)-",352.55,1,c1ccc(C2CO2)cc1,le15,0,0,0,0
"Acetaldehyde, phenyl- (8CI)",362.35,1,O=CCc1ccccc1,le15,0,0,0,0
"Isobenzofuran, 1,3-dihydro-",336.15,1,c1ccc2c(c1)COC2,le15,0,0,0,0
"Benzofuran, 2,3-dihydro-",339.15,1,c1ccc2c(c1)CCO2,le15,0,0,0,0
o-Tolualdehyde (8CI),352.65,1,Cc1ccccc1C=O,le15,0,0,0,0
"Benzaldehyde, 3-methyl-",351.15,1,Cc1cccc(C=O)c1,le15,0,0,0,0
4-ethenylphenol,365.45,1,C=Cc1ccc(O)cc1,le15,0,0,0,0
"Ethanone, 1-phenyl-",354.05,1,CC(=O)c1ccccc1,le15,0,0,0,0
"2-(hydroxymethyl)-2-methylpropane-1,3-diol",418.65,1,CC(CO)(CO)CO,le15,0,0,0,0
"Ethanol, 2-(2-methoxyethoxy)-",357.05,1,COCCOCCO,le15,0,0,0,0
"1,3-dimethoxypropan-2-ol",331.35,1,COCC(O)COC,le15,0,0,0,0
"1,1,1-trimethoxyethane",289.15,1,COC(C)(OC)OC,le15,0,0,0,0
"3-ethoxypropane-1,2-diol",372.65,1,CCOCC(O)CO,le15,0,0,0,0
"Thiophene, tetrahydro-, 1,1-dioxide",443.82800000000003,1,O=S1(=O)CCCC1,le15,0,0,0,0
(Ethylsulphonyl)ethylene,382.15,1,C=CS(=O)(=O)CC,le15,0,0,0,0
methyl 3-sulfanylpropanoate,333.15,1,COC(=O)CCS,le15,0,0,0,0
"Benzene, (1-methylethyl)-",304.15,1,CC(C)c1ccccc1,le15,0,0,0,0
1-ethyl-2-methylbenzene,312.55,1,CCc1ccccc1C,le15,0,0,0,0
"Bicyclo(2.2.1)hept-2-ene, 5-ethenyl-",299.35,1,C=CC1CC2C=CC1C2,le15,0,0,0,0
"Bicyclo(2.2.1)hept-2-ene, 5-ethylidene-",311.45,1,CC=C1CC2C=CC1C2,le15,0,0,0,0
"1H-Indene, 3a,4,7,7a-tetrahydro-",306.95,1,C1=CCC2CC=CC2C1,le15,0,0,0,0
5ethylidene2norbornene,311.0,1,CC=C1CC2C=CC1C2,le15,0,0,0,0
mEthyltoluene,311.0,1,CCc1ccccc1,le15,0,0,0,0
Ethanedithioamide,379.35,1,NC(=S)C(N)=S,le15,0,0,0,0
"1,3-Dithiane",363.15,1,C1CSCSC1,le15,0,0,0,0
"1,4-Dithiane",355.25,1,C1CSCCS1,le15,0,0,0,0
prop-1-en-2-yl carbonochloridate,289.25,1,C=C(C)OC(=O)Cl,le15,0,0,0,0
Pentanoyl chloride,305.95,1,CCCCC(=O)Cl,le15,0,0,0,0
"Oxetane, 3-(chloromethyl)-3-methyl-",316.05,1,CC1(CCl)COC1,le15,0,0,0,0
2-methylbutanoyl chloride,298.65,1,CCC(C)C(=O)Cl,le15,0,0,0,0
3-methylbutanoyl chloride,298.65,1,CC(C)CC(=O)Cl,le15,0,0,0,0
"2,2-dimethylpropanoyl chloride",282.05,1,CC(C)(C)C(=O)Cl,le15,0,0,0,0
1-chlorohexane,299.15,1,CCCCCCCl,le15,0,0,0,0
3-chloro-3-methylpentane,282.55,1,CCC(C)(Cl)CC,le15,0,0,0,0
3-chlorohexane,298.15,1,CCCC(Cl)CC,le15,0,0,0,0
"1-chloro-3,3-dimethylbutane",292.15,1,CC(C)(C)CCCl,le15,0,0,0,0
3-(chloromethyl)pentane,298.15,1,CCC(CC)CCl,le15,0,0,0,0
[(E)-2-chloroethenyl]-dimethylsilicon,269.15,1,C[Si](C)/C=C/Cl,le15,1,1,0,0
"Methane, dichlorodifluoro-",284.15,1,FC(F)(Cl)Cl,le15,0,0,0,0
2-bromoprop-1-ene,327.15,1,C=C(C)Br,le15,0,0,0,0
"1-Propene, 3-bromo-",272.15,1,C=CCBr,le15,0,0,0,0
"Peroxide, acetyl nitro",357.85,1,CC(=O)OO[N+](=O)[O-],le15,0,0,0,0
4-fluorobenzonitrile,338.75,1,N#Cc1ccc(F)cc1,le15,0,0,0,0
3-fluorobenzonitrile,340.15,1,N#Cc1cccc(F)c1,le15,0,0,0,0
"Ethanone, 1-(3-pyridinyl)-",377.15,1,CC(=O)c1cccnc1,le15,0,0,0,0
"Benzaldehyde, p-amino- (8CI)",395.14099999999996,1,Nc1ccc(C=O)cc1,le15,0,0,0,0
"Benzene, 1-methyl-2-nitroso- (9CI)",347.85,1,Cc1ccccc1N=O,le15,0,0,0,0
"Benzaldehyde, oxime, (Z)-",382.05,1,O/N=C\c1ccccc1,le15,0,0,0,0
"Ethanone, 1-(4-pyridinyl)-",360.15,1,CC(=O)c1ccncc1,le15,0,0,0,0
"Ethanone, 1-(2-pyridinyl)-",346.45,1,CC(=O)c1ccccn1,le15,0,0,0,0
"Formamide, N-phenyl-",423.35,1,O=CNc1ccccc1,le15,0,0,0,0
L-Cysteine,404.65,1,N[C@@H](CS)C(=O)O,le15,0,0,0,0
2-phenylethanamine,363.75,1,NCCc1ccccc1,le15,0,0,0,0
"Benzenamine, 2,3-dimethyl-",369.15,1,Cc1cccc(N)c1C,le15,0,0,0,0
"Benzenamine, 2,6-dimethyl-",364.15,1,Cc1cccc(C)c1N,le15,0,0,0,0
"Benzenemethanamine, 2-methyl-",357.05,1,Cc1ccccc1CN,le15,0,0,0,0
"Benzenamine, 2,4-dimethyl-",363.75,1,Cc1ccc(N)c(C)c1,le15,0,0,0,0
"Benzenamine, 2,5-dimethyl-",367.05,1,Cc1ccc(C)c(N)c1,le15,0,0,0,0
(3-methylphenyl)methanamine,353.75,1,Cc1cccc(CN)c1,le15,0,0,0,0
"Benzenamine, N-ethyl-",358.15,1,CCNc1ccccc1,le15,0,0,0,0
"Benzylamine, p-methyl- (8CI)",348.15,1,Cc1ccc(CN)cc1,le15,0,0,0,0
"Benzenamine, 3,5-dimethyl-",366.45,1,Cc1cc(C)cc(N)c1,le15,0,0,0,0
3-ethyl-4-methylpyridine,343.251,1,CCc1cnccc1C,le15,0,0,0,0
4-ethyl-2-methylpyridine,330.15,1,CCc1ccnc(C)c1,le15,0,0,0,0
"Aniline, o-ethyl- (8CI)",358.15,1,CCc1ccccc1N,le15,0,0,0,0
"o-Toluidine, N-methyl- (8CI)",349.55,1,CNc1ccccc1C,le15,0,0,0,0
"Benzenemethanamine, alpha-methyl-",348.95300000000003,1,CC(N)c1ccccc1,le15,0,0,0,0
"m-Toluidine, N-methyl- (8CI)",350.45,1,CNc1cccc(C)c1,le15,0,0,0,0
"2,4,5-trimethylpyridine",331.05,1,Cc1cc(C)c(C)cn1,le15,0,0,0,0
2-ethyl-6-methylpyridine,316.55,1,CCc1cccc(C)n1,le15,0,0,0,0
4-propylpyridine,337.66,1,CCCc1ccncc1,le15,0,0,0,0
"2,3,6-trimethylpyridine",320.75,1,Cc1ccc(C)c(C)n1,le15,0,0,0,0
"2,3,4-trimethylpyridine",335.05,1,Cc1ccnc(C)c1C,le15,0,0,0,0
"Benzenamine, 3,4-dimethyl-",371.45,1,Cc1ccc(N)cc1C,le15,0,0,0,0
N-methyl-1-phenylmethanamine,350.95,1,CNCc1ccccc1,le15,0,0,0,0
"Pyridine, 5-ethyl-2-methyl-",339.25,1,CCc1ccc(C)nc1,le15,0,0,0,0
"Benzenamine, 3-ethyl- (9CI)",358.15,1,CCc1cccc(N)c1,le15,0,0,0,0
"Aniline, p-ethyl- (8CI)",358.15,1,CCc1ccc(N)cc1,le15,0,0,0,0
"N,4-dimethylaniline",345.25,1,CNc1ccc(C)cc1,le15,0,0,0,0
2-propan-2-ylpyridine,296.35,1,CC(C)c1ccccn1,le15,0,0,0,0
"2,3,5-trimethylpyridine",315.95,1,Cc1cnc(C)c(C)c1,le15,0,0,0,0
"Benzaldehyde, 2-hydroxy-",349.85,1,O=Cc1ccccc1O,le15,0,0,0,0
"Benzaldehyde, 4-hydroxy-",374.45,1,O=Cc1ccc(O)cc1,le15,0,0,0,0
"Benzene, 1,2-methylenedioxy-",328.15,1,c1ccc2c(c1)OCO2,le15,0,0,0,0
"2,5-Cyclohexadiene-1,4-dione, 2-methyl-",338.05,1,CC1=CC(=O)C=CC1=O,le15,0,0,0,0
"Benzaldehyde, 3-hydroxy-",371.75,1,O=Cc1cccc(O)c1,le15,0,0,0,0
"2-Propenal, 3-(2-furanyl)-",361.95,1,O=CC=Cc1ccco1,le15,0,0,0,0
3-Pyridinecarboxamide,429.15,1,NC(=O)c1cccnc1,le15,0,0,0,0
"1,2,3,4-Butanetetrol, (2R,3S)-rel-",481.95,1,OC[C@H](O)[C@H](O)CO,le15,0,0,0,0
"4-Pyridinecarboxaldehyde, oxime",345.25,1,ON=Cc1ccncc1,le15,0,0,0,0
"2-Pyridinecarboxaldehyde, oxime",346.65,1,ON=Cc1ccccn1,le15,0,0,0,0
4-Pyridinecarboxamide,429.15,1,NC(=O)c1ccncc1,le15,0,0,0,0
"1,2-Oxathiolane, 2,2-dioxide",406.931,1,O=S1(=O)CCCO1,le15,0,0,0,0
Phenethyl alcohol,371.55,1,OCCc1ccccc1,le15,0,0,0,0
"Benzyl alcohol, o-methyl- (8CI)",377.55,1,Cc1ccccc1CO,le15,0,0,0,0
"Phenol, 2-ethyl-",351.45,1,CCc1ccccc1O,le15,0,0,0,0
"Phenol, 3,4-dimethyl-",367.15,1,Cc1ccc(O)cc1C,le15,0,0,0,0
1-methoxy-3-methylbenzene,327.15,1,COc1cccc(C)c1,le15,0,0,0,0
"Benzene, 1-methoxy-4-methyl-",326.45,1,COc1ccc(C)cc1,le15,0,0,0,0
"Ether, benzyl methyl (8CI)",326.15,1,COCc1ccccc1,le15,0,0,0,0
"Phenol, 2,6-dimethyl-",351.45,1,Cc1cccc(C)c1O,le15,0,0,0,0
1-methoxy-2-methylbenzene,324.15,1,COc1ccccc1C,le15,0,0,0,0
"Benzenemethanol, 3-methyl-",378.75,1,Cc1cccc(CO)c1,le15,0,0,0,0
4-Methyl-benzenemethanol (9CI),378.15,1,Cc1ccc(CO)cc1,le15,0,0,0,0
"Phenol, m-ethyl- (8CI)",367.15,1,CCc1cccc(O)c1,le15,0,0,0,0
1-phenylethanol,358.15,1,CC(O)c1ccccc1,le15,0,0,0,0
"Ether, 1,3,5-cycloheptatrien-1-yl methyl (7CI,8CI)",345.65,1,COC1=CC=CC=CC1,le15,0,0,0,0
"Benzene, ethoxy-",328.15,1,CCOc1ccccc1,le15,0,0,0,0
"Phenol, 3,5-dimethyl-",365.45,1,Cc1cc(C)cc(O)c1,le15,0,0,0,0
"1,4-Benzenediamine, 2-methyl-",413.75,1,Cc1cc(N)ccc1N,le15,0,0,0,0
"1,3-Benzenediamine, 4-methyl-",422.65,1,Cc1ccc(N)cc1N,le15,0,0,0,0
"1,2-Benzenediamine, 4-methyl-",405.25,1,Cc1ccc(N)c(N)c1,le15,0,0,0,0
"1,3-Benzenediamine, 2-methyl-",421.45,1,Cc1c(N)cccc1N,le15,0,0,0,0