compound,flashpoint,pure substance,smiles,source,is_silicon,is_metallic,is_tin,is_acid
"2,6-Octadien-1-ol, 3,7-dimethyl-, propanoate, (2Z)-",370.85,1,CCC(=O)OC/C=C(/C)CCC=C(C)C,le15,0,0,0,0
"1,6-Octadien-3-ol, 3,7-dimethyl-, propionate (7CI,8CI)",370.15,1,C=CC(C)(CCC=C(C)C)OC(=O)CC,le15,0,0,0,0
"2,6-Octadien-1-ol, 3,7-dimethyl-, propionate, (E)- (8CI)",386.15,1,CCC(=O)OC/C=C(\C)CCC=C(C)C,le15,0,0,0,0
"Cyclohexanamine, N-cyclohexyl-N-nitroso- (9CI)",440.45,1,O=NN(C1CCCCC1)C1CCCCC1,le15,0,0,0,0
4-(3-piperidin-4-ylpropyl)piperidine,405.25,1,C(CC1CCNCC1)CC1CCNCC1,le15,0,0,0,0
decylcyclopentane,388.55,1,CCCCCCCCCCC1CCCC1,le15,0,0,0,0
nonylcyclohexane,389.95,1,CCCCCCCCCC1CCCCC1,le15,0,0,0,0
"2-Propenoic acid, 3-(4-chlorophenyl)-, ethyl ester",425.05,1,CCOC(=O)C=Cc1ccc(Cl)cc1,le15,0,0,0,1
dichloro(iodo)methane,304.35,1,ClC(Cl)I,le15,0,0,0,0
dichlorophosphoryloxybenzene,372.25,1,O=P(Cl)(Cl)Oc1ccccc1,le15,0,0,0,0
"2-Propenal, 2-bromo-3-phenyl- (9CI)",383.35,1,O=CC(Br)=Cc1ccccc1,le15,0,0,0,0
"Benzenesulfonyl chloride, 4-chloro-",380.15,1,O=S(=O)(Cl)c1ccc(Cl)cc1,le15,0,0,0,0
"Benzenesulfonyl chloride, o-chloro- (6CI,7CI,8CI)",402.85,1,O=S(=O)(Cl)c1ccccc1Cl,le15,0,0,0,0
"Phthalic acid, 3-nitro- (8CI)",472.55,1,O=C(O)c1cccc([N+](=O)[O-])c1C(=O)O,le15,0,0,0,1
"Benzamide, 3,5-dinitro-",417.15,1,NC(=O)c1cc([N+](=O)[O-])cc([N+](=O)[O-])c1,le15,0,0,0,0
"Benzimidazole-5-carbonitrile, 2-(trifluoromethyl)-",439.65,1,N#Cc1ccc2nc(C(F)(F)F)[nH]c2c1,le15,0,0,0,0
"9-Thiabicyclo(3.3.1)nonane, 2,6-dichloro-",417.45,1,ClC1CCC2SC1CCC2Cl,le15,0,0,0,0
"9H-Fluorene, 3-nitro- (9CI)",463.75,1,O=[N+]([O-])c1ccc2c(c1)-c1ccccc1C2,le15,0,0,0,0
2-Amino-3-hydroxyphenazine,457.75,1,Nc1cc2nc3ccccc3nc2cc1O,le15,0,0,0,0
"Cytidine, 2',3'-dideoxy-",477.95,1,Nc1ccn([C@H]2CC[C@@H](CO)O2)c(=O)n1,le15,0,0,0,0
N-(2-phenylphenyl)acetamide,498.65,1,CC(=O)Nc1ccccc1-c1ccccc1,le15,0,0,0,0
"Benzeneacetamide, alpha-phenyl- (9CI)",463.45,1,NC(=O)C(c1ccccc1)c1ccccc1,le15,0,0,0,0
"Guanidine, N,N'-diphenyl-",431.65,1,N=C(Nc1ccccc1)Nc1ccccc1,le15,0,0,0,0
"1,3-Benzenediol, 5-(1-hydroxy-2-((1-methylethyl)amino)ethyl)- (9CI)",452.85,1,CC(C)NCC(O)c1cc(O)cc(O)c1,le15,0,0,0,0
"2-phenyl-1,3-benzothiazole",447.55,1,c1ccc(-c2nc3ccccc3s2)cc1,le15,0,0,0,0
"Cyclohexanamine, N-(2-ethylhexyl)- (9CI)",384.95,1,CCCCC(CC)CNC1CCCCC1,le15,0,0,0,0
"Benzene, 1,2,4-trichloro-3-methoxy-",373.55,1,COc1c(Cl)ccc(Cl)c1Cl,le15,0,0,0,0
"2,4,6-trichloro-3-methylphenol",388.35,1,Cc1c(Cl)cc(Cl)c(O)c1Cl,le15,0,0,0,0
"4H-1,3-Benzoxazin-4-one, 2-(2-chloroethyl)-2,3-dihydro-",498.95,1,O=C1NC(CCCl)Oc2ccccc21,le15,0,0,0,0
"Acetamide, N-(4-(chloroacetyl)phenyl)-",383.15,1,CC(=O)Nc1ccc(C(=O)CCl)cc1,le15,0,0,0,0
"Butanamide, N-(2-chlorophenyl)-3-oxo-",449.15,1,CC(=O)CC(=O)Nc1ccccc1Cl,le15,0,0,0,0
"Acetamide, 2-chloro-N-(1-methylethyl)-N-phenyl-",402.55,1,CC(C)N(C(=O)CCl)c1ccccc1,le15,0,0,0,0
trichloro(3-chloropropyl)silane,342.55,1,ClCCC[Si](Cl)(Cl)Cl,le15,1,1,0,0
"1-Propene, 1,3,3,3-tetrafluoro-1-methoxy-2-(trifluoromethyl)- (9CI)",287.75,1,COC(F)=C(C(F)(F)F)C(F)(F)F,le15,0,0,0,0
"2,3,4,5,6-pentafluorobenzoic acid",360.05,1,O=C(O)c1c(F)c(F)c(F)c(F)c1F,le15,0,0,0,1
"1-Naphthylamine, 5,8-dichloro-",448.35,1,Nc1cccc2c(Cl)ccc(Cl)c12,le15,0,0,0,0
"1,5-Pentanediol, 2,2,3,3,4,4-hexafluoro-",406.65,1,OCC(F)(F)C(F)(F)C(F)(F)CO,le15,0,0,0,0
"Benzoic acid, 3,5-dinitro-",452.35,1,O=C(O)c1cc([N+](=O)[O-])cc([N+](=O)[O-])c1,le15,0,0,0,1
"Benzoic acid, 3,4-dinitro-",481.55,1,O=C(O)c1ccc([N+](=O)[O-])c([N+](=O)[O-])c1,le15,0,0,0,1
"Benzoic acid, 2,4-dinitro-",460.45,1,O=C(O)c1ccc([N+](=O)[O-])cc1[N+](=O)[O-],le15,0,0,0,1
"9H-Carbazole, 3-nitro-",498.25,1,O=[N+]([O-])c1ccc2[nH]c3ccccc3c2c1,le15,0,0,0,0
"Benzoic acid, 3,4,5-trihydroxy-, propyl ester",454.45,1,CCCOC(=O)c1cc(O)c(O)c(O)c1,le15,0,0,0,1
"2,4,5-trimethoxybenzoic acid",407.15,1,COc1cc(OC)c(C(=O)O)cc1OC,le15,0,0,0,1
"Benzeneacetic acid, alpha-phenyl-",413.55,1,O=C(O)C(c1ccccc1)c1ccccc1,le15,0,0,0,1
"Methanone, (4-methoxyphenyl)phenyl-",428.85,1,COc1ccc(C(=O)c2ccccc2)cc1,le15,0,0,0,0
Benzyl 4-hydroxyphenyl ketone,445.35,1,O=C(Cc1ccccc1)c1ccc(O)cc1,le15,0,0,0,0
"(1,1'-Biphenyl)-4-acetic acid",559.75,1,O=C(O)Cc1ccc(-c2ccccc2)cc1,le15,0,0,0,1
"Benzoic acid, phenylmethyl ester",421.05,1,O=C(OCc1ccccc1)c1ccccc1,le15,0,0,0,1
"2,4,8,10-Tetraoxaspiro(5,5)undecane, 3,9-diethenyl- (9CI)",386.15,1,C=CC1OCC2(CO1)COC(C=C)OC2,le15,0,0,0,0
"Urea, N,N'-diphenyl-",364.25,1,O=C(Nc1ccccc1)Nc1ccccc1,le15,0,0,0,0
N'-phenylbenzohydrazide,394.15,1,O=C(NNc1ccccc1)c1ccccc1,le15,0,0,0,0
"Urea, N,N-diphenyl-",443.85,1,NC(=O)N(c1ccccc1)c1ccccc1,le15,0,0,0,0
(4-methoxyphenyl)-phenyldiazene,423.95,1,COc1ccc(N=Nc2ccccc2)cc1,le15,0,0,0,0
thioxanthen-9-one,476.95,1,O=c1c2ccccc2sc2ccccc12,le15,0,0,0,0
"1,3-Benzenediamine, 4-(phenylazo)-",487.95,1,Nc1ccc(N=Nc2ccccc2)c(N)c1,le15,0,0,0,0
"2,3-diphenylpropan-1-ol",407.55,1,OCC(Cc1ccccc1)c1ccccc1,le15,0,0,0,0
"Benzeneethanol, alpha-methyl-alpha-phenyl-",404.05,1,CC(O)(Cc1ccccc1)c1ccccc1,le15,0,0,0,0
"Hydrazine, 1,1-bis(phenylmethyl)- (9CI)",480.75,1,NN(Cc1ccccc1)Cc1ccccc1,le15,0,0,0,0
"1,8-dimethyldibenzothiophene",403.35,1,Cc1ccc2sc3cccc(C)c3c2c1,le15,0,0,0,0
"Phosphonodithioic acid, methyl-, S,S-dipropyl ester",402.95,1,CCCSP(C)(=O)SCCC,le15,0,0,0,1
"7-Octen-1-ol, 3,7-dimethyl-, propanoate",362.65,1,C=C(C)CCCC(C)CCOC(=O)CC,le15,0,0,0,0
"6-Octen-1-ol, 3,7-dimethyl-, propionate (7CI,8CI)",363.95,1,CCC(=O)OCCC(C)CCC=C(C)C,le15,0,0,0,0
"2-Propenoic acid, decyl ester",367.45,1,C=CC(=O)OCCCCCCCCCC,le15,0,0,0,1
"2-Propenoic acid, isodecyl ester",367.45,1,C=CC(=O)OCCCCCCCC(C)C,le15,0,0,0,1
Myristaldehyde (8CI),394.65,1,CCCCCCCCCCCCCC=O,le15,0,0,0,0
"Anthracene, 9-chloro-",452.35,1,Clc1c2ccccc2cc2ccccc12,le15,0,0,0,0
"Anthracene, 1-chloro- (8CI)(9CI)",452.35,1,Clc1cccc2cc3ccccc3cc12,le15,0,0,0,0
"1-Naphthol, 2,4-dichloro- (8CI)",407.15,1,Oc1c(Cl)cc(Cl)c2ccccc12,le15,0,0,0,0
Pentafluoronitrobenzene,363.75,1,O=[N+]([O-])c1c(F)c(F)c(F)c(F)c1F,le15,0,0,0,0
2-bromo-1-phenylpropan-1-one,348.75,1,CC(Br)C(=O)c1ccccc1,le15,0,0,0,0
"Benzene, 1,3,5-trinitro-",437.25,1,O=[N+]([O-])c1cc([N+](=O)[O-])cc([N+](=O)[O-])c1,le15,0,0,0,0
1-bromo-4-tert-butylbenzene,370.15,1,CC(C)(C)c1ccc(Br)cc1,le15,0,0,0,0
"Dibenzofuran, 3-nitro-",456.55,1,O=[N+]([O-])c1ccc2c(c1)oc1ccccc12,le15,0,0,0,0
"Benzamide, 2-hydroxy-N-phenyl-",404.95,1,O=C(Nc1ccccc1)c1ccccc1O,le15,0,0,0,0
"Phenol, 4-((4-aminophenyl)azo)-",467.05,1,Nc1ccc(N=Nc2ccc(O)cc2)cc1,le15,0,0,0,0
"2,6-Pyridinediamine, 3-(phenylazo)- (9CI)",494.45,1,Nc1ccc(N=Nc2ccccc2)c(N)n1,le15,0,0,0,0
"1,3,5-Triazine-2,4-diamine, N,N'-diethyl-6-(methylthio)- (9CI)",464.75,1,CCNc1nc(NCC)nc(SC)n1,le15,0,0,0,0
"1-Dodecanamine, N,N-dimethyl-",380.05,1,CCCCCCCCCCCCN(C)C,le15,0,0,0,0
Diheptylamine (8CI),381.05,1,CCCCCCCNCCCCCCC,le15,0,0,0,0
"Carbamic acid, (3-chlorophenyl)-, 1-methylethyl ester (9CI)",378.85,1,CC(C)OC(=O)Nc1cccc(Cl)c1,le15,0,0,0,1
"Carbamic acid, o-chloro-alpha-ethylbenzyl ester",440.15,1,CCC(OC(N)=O)c1ccccc1Cl,le15,0,0,0,1
"2-Butene, 1,4-dibromo-, trans-",345.05,1,BrC/C=C/CBr,le15,0,0,0,0
"2-Butene, 1,4-dibromo-",386.15,1,BrCC=CCBr,le15,0,0,0,0
"Acetic acid, iodo-, ethyl ester",350.15,1,CCOC(=O)CI,le15,0,0,0,1
"2,2,3,3,4,4,4-heptafluorobutanoic acid",291.15,1,O=C(O)C(F)(F)C(F)(F)C(F)(F)F,le15,0,0,0,1
2-Bromo-N-phenylacetamide,440.55,1,O=C(CBr)Nc1ccccc1,le15,0,0,0,0
"Isothiocyanic acid, p-bromophenyl ester",396.35,1,S=C=Nc1ccc(Br)cc1,le15,0,0,0,1
1-bromo-3-isothiocyanatobenzene,402.05,1,S=C=Nc1cccc(Br)c1,le15,0,0,0,0
"1,3-bis(trifluoromethyl)benzene",299.15,1,FC(F)(F)c1cccc(C(F)(F)F)c1,le15,0,0,0,0
"1,4-bis(trifluoromethyl)benzene",294.85,1,FC(F)(F)c1ccc(C(F)(F)F)cc1,le15,0,0,0,0
"1H-Benzimidazole, 5,6-dimethyl-2-(trifluoromethyl)- (9CI)",411.55,1,Cc1cc2nc(C(F)(F)F)[nH]c2cc1C,le15,0,0,0,0
"Carbonic acid, diphenyl ester",392.55,1,O=C(Oc1ccccc1)Oc1ccccc1,le15,0,0,0,1
"Benzoic acid, 2-hydroxy-, phenyl ester",410.45,1,O=C(Oc1ccccc1)c1ccccc1O,le15,0,0,0,1
"Methanone, (2,4-dihydroxyphenyl)phenyl-",398.15,1,O=C(c1ccccc1)c1ccc(O)cc1O,le15,0,0,0,0
"1,3-Benzenediol, monobenzoate",439.35,1,O=C(Oc1cccc(O)c1)c1ccccc1,le15,0,0,0,0
"2,2'-Dihydroxybenzophenone",439.95,1,O=C(c1ccccc1O)c1ccccc1O,le15,0,0,0,0
2-phenoxybenzoic acid,405.15,1,O=C(O)c1ccccc1Oc1ccccc1,le15,0,0,0,1
"Benzenamine, 4-nitro-N-phenyl-",458.35,1,O=[N+]([O-])c1ccc(Nc2ccccc2)cc1,le15,0,0,0,0
"4-Biphenylamine, 4'-nitro-",462.05,1,Nc1ccc(-c2ccc([N+](=O)[O-])cc2)cc1,le15,0,0,0,0
"Phosphine, ethyldiphenyl-",412.75,1,CCP(c1ccccc1)c1ccccc1,le15,0,0,0,0
"Sulfanilamide, N1-amidino- (8CI)",522.35,1,N=C(N)NS(=O)(=O)c1ccc(N)cc1,le15,0,0,0,0
1-methoxy-3-(3-methoxyphenyl)benzene,402.95,1,COc1cccc(-c2cccc(OC)c2)c1,le15,0,0,0,0
"Benzenemethanol, alpha-((2-pyridinylamino)methyl)- (9CI)",458.65,1,OC(CNc1ccccn1)c1ccccc1,le15,0,0,0,0
"1,1,2,3,3-pentachloroprop-1-ene",345.85,1,ClC(Cl)=C(Cl)C(Cl)Cl,le15,0,0,0,0
"diethyl cyclopentane-1,1-dicarboxylate",383.55,1,CCOC(=O)C1(C(=O)OCC)CCCC1,le15,0,0,0,0
Isopropyl toluene-4-sulphonate,416.85,1,Cc1ccc(S(=O)(=O)OC(C)C)cc1,le15,0,0,0,0
"Phosphorodithioic acid, O,O,S-triethyl ester",374.65,1,CCOP(=S)(OCC)SCC,le15,0,0,0,1
methyl dodecanoate,367.15,1,CCCCCCCCCCCC(=O)OC,le15,0,0,0,0
"Phosphorotrithious acid, triethyl ester",399.65,1,CCSP(SCC)SCC,le15,0,0,0,1
"Octanoic acid, 3-methylbutyl ester",377.85,1,CCCCCCCC(=O)OCCC(C)C,le15,0,0,0,1
octyl pentanoate,382.75,1,CCCCCCCCOC(=O)CCCC,le15,0,0,0,0
tetradecan-2-ol,379.15,1,CCCCCCCCCCCCC(C)O,le15,0,0,0,0
"Propanoic acid, 2-(4-chlorophenoxy)-2-methyl-",422.95,1,CC(C)(Oc1ccc(Cl)cc1)C(=O)O,le15,0,0,0,1
"Toluene, 2,5-dichloro-alpha,alpha,alpha-trifluoro- (6CI,7CI,8CI)",343.85,1,FC(F)(F)c1cc(Cl)ccc1Cl,le15,0,0,0,0
"Toluene, 2,4-dichloro-alpha,alpha,alpha-trifluoro- (8CI)",345.15,1,FC(F)(F)c1ccc(Cl)cc1Cl,le15,0,0,0,0
"Toluene, 3,4-dichloro-alpha,alpha,alpha-trifluoro- (6CI,8CI)",338.75,1,FC(F)(F)c1ccc(Cl)c(Cl)c1,le15,0,0,0,0
2-Bromo-1-(4-hydroxyphenyl)ethan-1-one,431.75,1,O=C(CBr)c1ccc(O)cc1,le15,0,0,0,0
methyl 2-bromobenzoate,372.75,1,COC(=O)c1ccccc1Br,le15,0,0,0,0
(4-bromophenyl)urea,402.85,1,NC(=O)Nc1ccc(Br)cc1,le15,0,0,0,0
"Furo(2,3-b)quinolin-8-ol, 4-methoxy-",476.05,1,COc1c2ccoc2nc2c(O)cccc12,le15,0,0,0,0
"1,2-Benzenediamine, 4-(4-aminophenoxy)- (9CI)",519.65,1,Nc1ccc(Oc2ccc(N)c(N)c2)cc1,le15,0,0,0,0
"Butanoic acid, 4-(diethylamino)-4-oxo-, propyl ester (9CI)",415.95,1,CCCOC(=O)CCC(=O)N(CC)CC,le15,0,0,0,1
"Bicyclo(2.2.1)heptan-2-amine, N-ethyl-3-phenyl-",426.05,1,CCNC1C2CCC(C2)C1c1ccccc1,le15,0,0,0,0
"2-Propanone, 1,1,3-trichloro-1,3,3-trifluoro-",295.25,1,O=C(C(F)(F)Cl)C(F)(Cl)Cl,le15,0,0,0,0
"Cyclohexanecarbamic acid, N-ethylthio-, S-ethyl ester",410.25,1,CCSC(=O)N(CC)C1CCCCC1,le15,0,0,0,1
"Benzoic acid, 2-chloro-5-nitro-, methyl ester",418.45,1,COC(=O)c1cc([N+](=O)[O-])ccc1Cl,le15,0,0,0,1
"Ethanol, 2,2'-((m-chlorophenyl)imino)di- (8CI)",467.35,1,OCCN(CCO)c1cccc(Cl)c1,le15,0,0,0,0
"1,3,5-Triazine-2,4-diamine, 6-chloro-N-ethyl-N'-(1-methylethyl)-",449.85,1,CCNc1nc(Cl)nc(NC(C)C)n1,le15,0,0,0,0
"Propanal, 2,3-dibromo- (9CI)",361.15,1,O=CC(Br)CBr,le15,0,0,0,0
"Benzene, 1,2,4,5-tetrachloro-",381.35,1,Clc1cc(Cl)c(Cl)cc1Cl,le15,0,0,0,0
"Benzene, 1,2,3,4-tetrachloro-",385.05,1,Clc1ccc(Cl)c(Cl)c1Cl,le15,0,0,0,0
"Benzene, 1,2,3,5-tetrachloro-",383.15,1,Clc1cc(Cl)c(Cl)c(Cl)c1,le15,0,0,0,0
"Butane, 1,4-dibromo-",338.35,1,BrCCCCBr,le15,0,0,0,0
"1,2-dibromobutane",317.15,1,CCC(Br)CBr,le15,0,0,0,0
"Propane, 1,2-dibromo-2-methyl-",299.35,1,CC(C)(Br)CBr,le15,0,0,0,0
"2,3-dibromobutane",306.15,1,CC(Br)C(C)Br,le15,0,0,0,0
"1,3-dibromobutane",321.95,1,CC(Br)CCBr,le15,0,0,0,0
"Benzene, 1-(bromomethyl)-4-nitro-",410.95,1,O=[N+]([O-])c1ccc(CBr)cc1,le15,0,0,0,0
"Benzene, 1-(bromomethyl)-3-nitro-",408.95,1,O=[N+]([O-])c1cccc(CBr)c1,le15,0,0,0,0
alpha-Bromo-2-nitrotoluene,393.35,1,O=[N+]([O-])c1ccccc1CBr,le15,0,0,0,0
2-Bromo-5-nitrotoluene,395.05,1,Cc1cc([N+](=O)[O-])ccc1Br,le15,0,0,0,0
1-bromo-3-methyl-5-nitrobenzene,393.15,1,Cc1cc(Br)cc([N+](=O)[O-])c1,le15,0,0,0,0
"7H-Furo(3,2-g)(1)benzopyran-7-one, 9-methoxy-",477.811,1,COc1c2occc2cc2ccc(=O)oc12,le15,0,0,0,0
"7H-Furo(3,2-g)(1)benzopyran-7-one, 4-methoxy-",476.35,1,COc1c2ccoc2cc2oc(=O)ccc12,le15,0,0,0,0
"2,6-Naphthalenedicarboxylic acid",505.55,1,O=C(O)c1ccc2cc(C(=O)O)ccc2c1,le15,0,0,0,1
"Acetic acid, naphthyloxy-, methyl ester",413.85,1,COC(=O)COc1cccc2ccccc12,le15,0,0,0,1
"Propanedioic acid, (ethoxymethylene)-, diethyl ester",380.75,1,CCOC=C(C(=O)OCC)C(=O)OCC,le15,0,0,0,1
diethyl 2-acetylbutanedioate,399.25,1,CCOC(=O)CC(C(C)=O)C(=O)OCC,le15,0,0,0,0
"(1,1'-Biphenyl)-3,3'-diol, 4,4'-diamino-",493.45,1,Nc1ccc(-c2ccc(N)c(O)c2)cc1O,le15,0,0,0,0
"Pyrene, 1-methyl-",452.05,1,Cc1ccc2ccc3cccc4ccc1c2c34,le15,0,0,0,0
"Phosphorothioic acid, O,O-dimethyl S-(2-(methylthio)ethyl) ester",390.45,1,COP(=O)(OC)SCCSC,le15,0,0,0,1
11H-benzo[a]fluorene,458.55,1,c1ccc2c(c1)Cc1c-2ccc2ccccc12,le15,0,0,0,0
"diethyl 2,2-diethylpropanedioate",367.55,1,CCOC(=O)C(CC)(CC)C(=O)OCC,le15,0,0,0,0
"Propanedioic acid, butyl-, diethyl ester",366.15,1,CCCCC(C(=O)OCC)C(=O)OCC,le15,0,0,0,1
dibutyl propanedioate,390.55,1,CCCCOC(=O)CC(=O)OCCCC,le15,0,0,0,0
"Heptanedioic acid, diethyl ester",390.55,1,CCOC(=O)CCCCCC(=O)OCC,le15,0,0,0,1
"1,1,2,3,3-pentachloropropane",353.05,1,ClC(Cl)C(Cl)C(Cl)Cl,le15,0,0,0,0
"Quinazoline, 4-((2-(dimethylamino)ethyl)amino)-",452.85,1,CN(C)CCNc1ncnc2ccccc12,le15,0,0,0,0
thianthrene,443.95,1,c1ccc2c(c1)Sc1ccccc1S2,le15,0,0,0,0
"Octanal, 2-(phenylmethylene)-",413.65,1,CCCCCCC(C=O)=Cc1ccccc1,le15,0,0,0,0
tridecane-1-thiol,385.55,1,CCCCCCCCCCCCCS,le15,0,0,0,0
"Acetic acid, (4-chloro-2-hydroxymethylphenoxy)-",463.65,1,O=C(O)COc1ccc(Cl)cc1CO,le15,0,0,0,1
3-Chlorobenzophenone,451.45,1,O=C(c1ccccc1)c1cccc(Cl)c1,le15,0,0,0,0
"Benzophenone, 4-chloro- (8CI)",449.25,1,O=C(c1ccccc1)c1ccc(Cl)cc1,le15,0,0,0,0
"Urea, 3-(chloro-2-norbornyl)-1,1-dimethyl-",468.05,1,CN(C)C(=O)NC1CC2CCC1(Cl)C2,le15,0,0,0,0
"Urea, N'-(chlorobicyclo(2.2.1)hept-2-yl)-N,N-dimethyl-",468.05,1,CN(C)C(=O)NC1CC2CCC1(Cl)C2,le15,0,0,0,0
"2,3,5,6-tetrachloropyridine",461.15,1,Clc1cc(Cl)c(Cl)nc1Cl,le15,0,0,0,0
"5,6-dichloro-2-benzofuran-1,3-dione",417.95,1,O=C1OC(=O)c2cc(Cl)c(Cl)cc21,le15,0,0,0,0
"Arsonic acid, (4-aminophenyl)-",546.55,1,Nc1ccc([As](=O)(O)O)cc1,le15,0,1,0,1
"4-bromo-1,2-dimethoxybenzene",382.15,1,COc1ccc(Br)cc1OC,le15,0,0,0,0
"Propanedioic acid, (acetylamino)-, diethyl ester",418.35,1,CCOC(=O)C(NC(C)=O)C(=O)OCC,le15,0,0,0,1
"Acetamide, 2-fluoro-N-methyl-N-1-naphthalenyl- (9CI)",436.65,1,CN(C(=O)CF)c1cccc2ccccc12,le15,0,0,0,0
Pyren-1-ylamine,519.35,1,Nc1ccc2ccc3cccc4ccc1c2c34,le15,0,0,0,0
2-Aminopyrene,523.75,1,Nc1cc2ccc3cccc4ccc(c1)c2c34,le15,0,0,0,0
Fluoranthen-3-ylamine,519.35,1,Nc1ccc2c3c(cccc13)-c1ccccc1-2,le15,0,0,0,0
8-Aminofluoranthene,523.75,1,Nc1ccc2c(c1)-c1cccc3cccc-2c13,le15,0,0,0,0
"2,6-Piperidinedione, 3-ethyl-3-phenyl-",434.95,1,CCC1(c2ccccc2)CCC(=O)NC1=O,le15,0,0,0,0
"Quinoline, 6-ethoxy-1,2-dihydro-2,2,4-trimethyl-",410.95,1,CCOc1ccc2c(c1)C(C)=CC(C)(C)N2,le15,0,0,0,0
"Propionitrile, 3-(triethoxysilyl)- (8CI)",378.45,1,CCO[Si](CCC#N)(OCC)OCC,le15,1,1,0,0
"Pyrrolidine, 1-(1-(phenylmethyl)butyl)- (9CI)",396.45,1,CCCC(Cc1ccccc1)N1CCCC1,le15,0,0,0,0
"Carbamothioic acid, bis(2-methylpropyl)-, S-ethyl ester",396.45,1,CCSC(=O)N(CC(C)C)CC(C)C,le15,0,0,0,1
"Benzenamine, 2-chloro-4,6-dinitro-",454.55,1,Nc1c(Cl)cc([N+](=O)[O-])cc1[N+](=O)[O-],le15,0,0,0,0
"Aniline, 4-chloro-2,6-dinitro- (8CI)",444.65,1,Nc1c([N+](=O)[O-])cc(Cl)cc1[N+](=O)[O-],le15,0,0,0,0
trichloromethanesulfonyl chloride,336.85,1,O=S(=O)(Cl)C(Cl)(Cl)Cl,le15,0,0,0,0
1-iodo-4-methylbenzene,359.45,1,Cc1ccc(I)cc1,le15,0,0,0,0
1iodo3methylbenzene,355.0,1,Cc1cccc(I)c1,le15,0,0,0,0
"Propanamide, N-(3,4-dichlorophenyl)-",450.65,1,CCC(=O)Nc1ccc(Cl)c(Cl)c1,le15,0,0,0,0
"1,2,4,5-Benzenetetracarboxylic 1,2:4,5-dianhydride (8CI)",456.65,1,O=c1oc(=O)c2cc3c(=O)oc(=O)c3cc12,le15,0,0,0,0
"Benzenamine, N,N-bis(2-chloroethyl)- (9CI)",410.85,1,ClCCN(CCCl)c1ccccc1,le15,0,0,0,0
"Phosphoric acid, triallyl ester (8CI)",393.25,1,C=CCOP(=O)(OCC=C)OCC=C,le15,0,0,0,1
Ethyl .alpha.-acetylcinnamate,385.05,1,CCOC(=O)C(=Cc1ccccc1)C(C)=O,le15,0,0,0,0
"4,6(1H,5H)-Pyrimidinedione, 5-ethyldihydro-5-phenyl-",501.35,1,CCC1(c2ccccc2)C(=O)NCNC1=O,le15,0,0,0,0
"1,3-Propanediol, 2-methyl-2-propyl-, dicarbamate",502.85,1,CCCC(C)(COC(N)=O)COC(N)=O,le15,0,0,0,0
benzenesulfonylbenzene,499.95,1,O=S(=O)(c1ccccc1)c1ccccc1,le15,0,0,0,0
"Phenol, 4,4'-thiobis-",492.85,1,Oc1ccc(Sc2ccc(O)cc2)cc1,le15,0,0,0,0
"Phosphonodithioic acid, methyl-, O-methyl S-phenyl ester",403.35,1,COP(C)(=S)Sc1ccccc1,le15,0,0,0,1
"Butanoic acid, 3-methyl-, 3-phenyl-2-propenyl ester",401.45,1,CC(C)CC(=O)OCC=Cc1ccccc1,le15,0,0,0,1
trichloro(dichloromethyl)silane,353.05,1,ClC(Cl)[Si](Cl)(Cl)Cl,le15,1,1,0,0
Diphenyl disulphide,450.95,1,c1ccc(SSc2ccccc2)cc1,le15,0,0,0,0
"Butane, 1,1'-(oxybis(2,1-ethanediyloxy))bis-",390.35,1,CCCCOCCOCCOCCCC,le15,0,0,0,0
"Benzhydrol, 4-chloro- (8CI)",439.95,1,OC(c1ccccc1)c1ccc(Cl)cc1,le15,0,0,0,0
"Phenol, 4-chloro-2-(phenylmethyl)-",432.35,1,Oc1ccc(Cl)cc1Cc1ccccc1,le15,0,0,0,0
"Methane, dibromonitro-",319.25,1,O=[N+]([O-])C(Br)Br,le15,0,0,0,0
"1,3-Dichloro-2,4,5,6-tetrafluorobenzene",437.15,1,Fc1c(F)c(Cl)c(F)c(Cl)c1F,le15,0,0,0,0
"Benzenamine, 4-iodo-",389.45,1,Nc1ccc(I)cc1,le15,0,0,0,0
"Benzenamine, 2-iodo-",385.45,1,Nc1ccccc1I,le15,0,0,0,0
"Urea, 1-(3,4-dichlorophenyl)-3-methyl- (6CI,7CI,8CI)",405.55,1,CNC(=O)Nc1ccc(Cl)c(Cl)c1,le15,0,0,0,0
"Pyrimidine, 4,6-dimethyl-2-(5-nitro-2-furyl)-",388.85,1,Cc1cc(C)nc(-c2ccc([N+](=O)[O-])o2)n1,le15,0,0,0,0
"beta-Alanine, N-(2,4-dihydroxy-3,3-dimethyl-1-oxobutyl)-, (R)- (9CI)",560.45,1,CC(C)(CO)[C@@H](O)C(=O)NCCC(=O)O,le15,0,0,0,0
"1-Naphthalenamine, N-phenyl-",463.35,1,c1ccc(Nc2cccc3ccccc23)cc1,le15,0,0,0,0
"2-Naphthalenamine, N-phenyl-",482.35,1,c1ccc(Nc2ccc3ccccc3c2)cc1,le15,0,0,0,0
"Carbamic acid, cyclopropyl(phenylmethyl)-, ethyl ester",422.95,1,CCOC(=O)N(Cc1ccccc1)C1CC1,le15,0,0,0,1
"Benzoic acid, 2-amino-, cyclohexyl ester",465.45,1,Nc1ccccc1C(=O)OC1CCCCC1,le15,0,0,0,1
"2,2',2''-(Hexahydro-1,3,5-triazine-1,3,5-triyl)triethanol",493.25,1,OCCN1CN(CCO)CN(CCO)C1,le15,0,0,0,0
2-bromobenzoyl chloride,380.15,1,O=C(Cl)c1ccccc1Br,le15,0,0,0,0
4-bromobenzoyl chloride,376.15,1,O=C(Cl)c1ccc(Br)cc1,le15,0,0,0,0
"butyl 2,2,2-trichloroacetate",346.05,1,CCCCOC(=O)C(Cl)(Cl)Cl,le15,0,0,0,0
"Cyclotrisilazane, 2,2,4,4,6,6-hexamethyl-",332.15,1,C[Si]1(C)N[Si](C)(C)N[Si](C)(C)N1,le15,1,1,0,0
trichloro(hexyl)silane,353.45,1,CCCCCC[Si](Cl)(Cl)Cl,le15,1,1,0,0
"Benzenamine, 4-(4-chlorophenoxy)-",438.45,1,Nc1ccc(Oc2ccc(Cl)cc2)cc1,le15,0,0,0,0
"Phenol, 4-iodo-",385.55,1,Oc1ccc(I)cc1,le15,0,0,0,0
"Carbanilic acid, 3,4-dichloro-, methyl ester",379.55,1,COC(=O)Nc1ccc(Cl)c(Cl)c1,le15,0,0,0,1
"Acetamide, 2-(2,4-dichlorophenoxy)-",470.05,1,NC(=O)COc1ccc(Cl)cc1Cl,le15,0,0,0,0
8-Hydroxy-4-(hydroxyacetyl)-1H-2-benzopyran-1-one,472.05,1,O=C(CO)c1coc(=O)c2c(O)cccc12,le15,0,0,0,0
"(1,1'-Biphenyl)-4,4'-diamine, 3,3'-difluoro- (9CI)",425.35,1,Nc1ccc(-c2ccc(N)c(F)c2)cc1F,le15,0,0,0,0
"Pyrimidine, 2-((3,4,4-trifluoro-3-butenyl)thio)-",393.55,1,FC(F)=C(F)CCSc1ncccn1,le15,0,0,0,0
"Tryptophan, 5-hydroxy-, L-",541.85,1,N[C@@H](Cc1c[nH]c2ccc(O)cc12)C(=O)O,le15,0,0,0,0
"1,1,1,2,2-pentachloro-2-fluoroethane",313.95,1,FC(Cl)(Cl)C(Cl)(Cl)Cl,le15,0,0,0,0
"Furan, 2,5-diphenyl-",437.45,1,c1ccc(-c2ccc(-c3ccccc3)o2)cc1,le15,0,0,0,0
ethyl 3-oxo-5-phenylpentanoate,405.45,1,CCOC(=O)CC(=O)CCc1ccccc1,le15,0,0,0,0
"Propanoic acid, 2,2-dimethyl-, 2-oxo-2-phenylethyl ester (9CI)",404.65,1,CC(C)(C)C(=O)OCC(=O)c1ccccc1,le15,0,0,0,1
"Propane, 1,1,3,3-tetraethoxy- (9CI)",315.35,1,CCOC(CC(OCC)OCC)OCC,le15,0,0,0,0
"4H-1,3-Thiazine-2-amine, N-(2,6-dimethylphenyl)-5,6-dihydro- (9CI)",429.05,1,Cc1cccc(C)c1NC1=NCCCS1,le15,0,0,0,0
"Phenol, 2,6-bis(1,1-dimethylethyl)-4-methyl-",391.55,1,Cc1cc(C(C)(C)C)c(O)c(C(C)(C)C)c1,le15,0,0,0,0
"2,4-ditert-butyl-6-methylphenol",396.15,1,Cc1cc(C(C)(C)C)cc(C(C)(C)C)c1O,le15,0,0,0,0
"1,4-Benzenediamine, N,N'-bis(1-methylpropyl)-",465.75,1,CCC(C)Nc1ccc(NC(C)CC)cc1,le15,0,0,0,0
"Benzimidazole, 4-chloro-2-(trifluoromethyl)-",409.05,1,FC(F)(F)c1nc2cccc(Cl)c2[nH]1,le15,0,0,0,0