compound,flashpoint,pure substance,smiles,source,is_silicon,is_metallic,is_tin,is_acid
"3,5,5-trimethyl-1-hexanol",353.0,1,CC(CCO)CC(C)(C)C,carroll11,0,0,0,0
"2,3-butanediol",358.0,1,CC(C(C)O)O,carroll11,0,0,0,0
"1,2-propanediol",372.0,1,C(C(C)O)O,carroll11,0,0,0,0
"1,2-butanediol",366.0,1,C(C(CC)O)O,carroll11,0,0,0,0
"1,2-ethanediol",381.0,1,C(CO)O,carroll11,0,0,0,0
"1,2-pentanediol",378.0,1,C(C(CCC)O)O,carroll11,0,0,0,0
"1,3-butanediol",382.0,1,C(CC(C)O)O,carroll11,0,0,0,0
"1,2-hexanediol",395.0,1,C(C(CCCC)O)O,carroll11,0,0,0,0
"1,4-butanediol",394.0,1,C(CCCO)O,carroll11,0,0,0,0
"1,5-pentanediol",402.0,1,C(CCCCO)O,carroll11,0,0,0,0
cyclooctanol,361.0,1,C1(CCCCCCC1)O,carroll11,0,0,0,0
aceticanhydride,322.0,1,C(C)(=O)OC(C)=O,carroll11,0,0,0,0
butanoicanhydride,355.0,1,C(CCC)(=O)OC(CCC)=O,carroll11,0,0,0,0
pentanoicanhydride,374.0,1,C(CCCC)(=O)OC(CCCC)=O,carroll11,0,0,0,0
hexanoicanhydride,386.0,1,C(CCCCC)(=O)OC(CCCCC)=O,carroll11,0,0,0,0
heptanoicanhydride,403.0,1,C(CCCCCC)(=O)OC(CCCCCC)=O,carroll11,0,0,0,0
isobutanoicanhydride,340.0,1,C(C(C)C)(=O)OC(C(C)C)=O,carroll11,0,0,0,0
pivalicanhydride,336.0,1,C(C(C)(C)C)(=O)OC(C(C)(C)C)=O,carroll11,0,0,0,0
3-methylbutanoicanhydride,364.0,1,CC(CC(=O)OC(CC(C)C)=O)C,carroll11,0,0,0,0
isopropylamine,241.0,1,C(C)(C)N,carroll11,0,0,0,0
tert-butylamine,235.0,1,C(C)(C)(C)N,carroll11,0,0,0,0
propylamine,243.0,1,C(CC)N,carroll11,0,0,0,0
cyclopropylamine,248.0,1,C1(CC1)N,carroll11,0,0,0,0
N-methylisopropylamine,253.0,1,CNC(C)C,carroll11,0,0,0,0
diethylamine,250.0,1,C(C)NCC,carroll11,0,0,0,0
sec-butylamine,254.0,1,C(C)(CC)N,carroll11,0,0,0,0
allylmethylamine,265.0,1,C(C=C)CN,carroll11,0,0,0,0
isobutylamine,263.0,1,C(C(C)C)N,carroll11,0,0,0,0
butylamine,266.0,1,C(CCC)N,carroll11,0,0,0,0
cyclobutylamine,269.0,1,C1(CCC1)N,carroll11,0,0,0,0
diisopropylamine,266.0,1,C(C)(C)NC(C)C,carroll11,0,0,0,0
3-pentanamine,275.0,1,CCC(CC)N,carroll11,0,0,0,0
N-methylbutylamine,275.0,1,CNCCCC,carroll11,0,0,0,0
pentylamine,277.0,1,C(CCCC)N,carroll11,0,0,0,0
cyclopentylamine,285.0,1,C1(CCCC1)N,carroll11,0,0,0,0
dipropylamine,280.0,1,C(CC)NCCC,carroll11,0,0,0,0
hexylamine,300.0,1,C(CCCCC)N,carroll11,0,0,0,0
diisobutylamine,303.0,1,C(C(C)C)NCC(C)C,carroll11,0,0,0,0
heptylamine,317.0,1,C(CCCCCC)N,carroll11,0,0,0,0
dibutylamine,320.0,1,C(CCC)NCCCC,carroll11,0,0,0,0
2-ethyl-1-hexanamine,323.0,1,C(C)C(CN)CCCC,carroll11,0,0,0,0
octylamine,333.0,1,C(CCCCCCC)N,carroll11,0,0,0,0
nonylamine,347.0,1,C(CCCCCCCC)N,carroll11,0,0,0,0
1-decanamine,358.0,1,C(CCCCCCCCC)N,carroll11,0,0,0,0
N-ethylcyclohexanamine,318.0,1,C(C)NC1CCCCC1,carroll11,0,0,0,0
di-sec-butylamine,297.0,1,C(C)(CC)NC(C)CC,carroll11,0,0,0,0
(aminomethyl)cyclohexane,316.0,1,NCC1CCCCC1,carroll11,0,0,0,0
N-ethyl-N-methylethanamine,250.0,1,C(C)N(CC)C,carroll11,0,0,0,0
triethylamine,264.0,1,C(C)N(CC)CC,carroll11,0,0,0,0
tripropylamine,308.0,1,C(CC)N(CCC)CCC,carroll11,0,0,0,0
tributylamine,344.0,1,C(CCC)N(CCCC)CCCC,carroll11,0,0,0,0
N-ethyldimethylamine,237.0,1,C(C)N(C)C,carroll11,0,0,0,0
1-ethylpiperidine,291.0,1,C(C)N1CCCCC1,carroll11,0,0,0,0
diethylenetriamine,363.0,1,NCCNCCN,carroll11,0,0,0,0
"N,N-dimethylcyclohexylamine",314.0,1,CN(C)C1CCCCC1,carroll11,0,0,0,0
"1,2-ethanediamine",307.0,1,C(CN)N,carroll11,0,0,0,0
"1,3-propanediamine",321.0,1,C(CCN)N,carroll11,0,0,0,0
"N,N-dimethyl-1,3-propanediamine",305.0,1,CN(CCCN)C,carroll11,0,0,0,0
"N,N-dimethylformamide",330.0,1,CN(C=O)C,carroll11,0,0,0,0
"N,N-dimethylacetamide",339.0,1,CN(C(C)=O)C,carroll11,0,0,0,0
"N,N-diethylformamide",338.0,1,C(C)N(C=O)CC,carroll11,0,0,0,0
"N,N-diethylacetamide",349.0,1,C(C)N(C(C)=O)CC,carroll11,0,0,0,0
N-ethylformamide,359.0,1,C(C)NC=O,carroll11,0,0,0,0
N-methylformamide,371.0,1,CNC=O,carroll11,0,0,0,0
N-ethylacetamide,379.0,1,C(C)NC(C)=O,carroll11,0,0,0,0
N-butylacetamide,388.0,1,C(CCC)NC(C)=O,carroll11,0,0,0,0
"N,N-diisopropylformamide",348.0,1,C(C)(C)N(C=O)C(C)C,carroll11,0,0,0,0
acetonitrile,275.0,1,C(C)#N,carroll11,0,0,0,0
propionitrile,279.0,1,C(CC)#N,carroll11,0,0,0,0
butyronitrile,291.0,1,C(CCC)#N,carroll11,0,0,0,0
pentanenitrile,305.0,1,C(CCCC)#N,carroll11,0,0,0,0
hexanenitrile,320.0,1,C(CCCCC)#N,carroll11,0,0,0,0
heptanenitrile,331.0,1,C(CCCCCC)#N,carroll11,0,0,0,0
octanenitrile,347.0,1,C(CCCCCCC)#N,carroll11,0,0,0,0
nonanenitrile,355.0,1,C(CCCCCCCC)#N,carroll11,0,0,0,0
decanenitrile,365.0,1,C(CCCCCCCCC)#N,carroll11,0,0,0,0
"2,2-dimethylpropanenitrile",277.0,1,CC(C#N)(C)C,carroll11,0,0,0,0
isobutyronitrile,281.0,1,C(C(C)C)#N,carroll11,0,0,0,0
cyclopropanecarbonitrile,305.0,1,C1(CC1)C#N,carroll11,0,0,0,0
3-methylbutanenitrile,301.0,1,CC(CC#N)C,carroll11,0,0,0,0
"1,4-dicyanobutane",432.0,1,C(#N)CCCCC#N,carroll11,0,0,0,0
1-propanethiol,259.0,1,C(CC)S,carroll11,0,0,0,0
1-butanethiol,275.0,1,C(CCC)S,carroll11,0,0,0,0
1-pentanethiol,291.0,1,C(CCCC)S,carroll11,0,0,0,0
1-hexanethiol,303.0,1,C(CCCCC)S,carroll11,0,0,0,0
1-heptanethiol,319.0,1,C(CCCCCC)S,carroll11,0,0,0,0
1-octanethiol,341.0,1,C(CCCCCCC)S,carroll11,0,0,0,0
1-nonanethiol,352.0,1,C(CCCCCCCC)S,carroll11,0,0,0,0
1-decanethiol,372.0,1,C(CCCCCCCCC)S,carroll11,0,0,0,0
1-undecanethiol,382.0,1,C(CCCCCCCCCC)S,carroll11,0,0,0,0
2-butanethiol,250.0,1,CC(CC)S,carroll11,0,0,0,0
2-pentanethiol,288.0,1,CC(CCC)S,carroll11,0,0,0,0
2-methyl-2-propanethiol,249.0,1,CC(C)(C)S,carroll11,0,0,0,0
2-methyl-1-butanethiol,292.0,1,CC(CS)CC,carroll11,0,0,0,0
3-methyl-2-butanethiol,282.0,1,CC(C(C)S)C,carroll11,0,0,0,0
cyclopentanethiol,298.0,1,C1(CCCC1)S,carroll11,0,0,0,0
cyclohexanethiol,314.0,1,C1(CCCCC1)S,carroll11,0,0,0,0
3-ethyl-3-pentanethiol,307.0,1,C(C)C(CC)(CC)S,carroll11,0,0,0,0
2-methyl-2-pentanethiol,293.0,1,CC(C)(CCC)S,carroll11,0,0,0,0
3-hexanethiol,303.0,1,CCC(CCC)S,carroll11,0,0,0,0
dimethylsulfide,237.0,1,CSC,carroll11,0,0,0,0
diethylsulfide,263.0,1,C(C)SCC,carroll11,0,0,0,0
dipropylsulfide,301.0,1,C(CC)SCCC,carroll11,0,0,0,0
dibutylsulfide,333.0,1,C(CCC)SCCCC,carroll11,0,0,0,0
ethylmethylsulfide,255.0,1,C(C)SC,carroll11,0,0,0,0
tert-butylmethylsulfide,270.0,1,C(C)(C)(C)SC,carroll11,0,0,0,0
thiacyclopentane,286.0,1,S1CCCC1,carroll11,0,0,0,0
thiacyclohexane,294.0,1,S1CCCCC1,carroll11,0,0,0,0
di-tert-butylsulfide,300.0,1,C(C)(C)(C)SC(C)(C)C,carroll11,0,0,0,0
di-sec-butylsulfide,312.0,1,C(C)(CC)SC(C)CC,carroll11,0,0,0,0
diisopentylsulfide,350.0,1,C(CC(C)C)SCCC(C)C,carroll11,0,0,0,0
diallylsulfide,296.0,1,C(C=C)SCC=C,carroll11,0,0,0,0
allylethylsulfide,289.0,1,C(C=C)SCC,carroll11,0,0,0,0
allylpropylsulfide,302.0,1,C(C=C)SCCC,carroll11,0,0,0,0
1-chlorohexane,299.0,1,ClCCCCCC,carroll11,0,0,0,0
1-chloroheptane,314.0,1,ClCCCCCCC,carroll11,0,0,0,0
1-chlorooctane,331.0,1,ClCCCCCCCC,carroll11,0,0,0,0
1-chlorononane,347.0,1,ClCCCCCCCCC,carroll11,0,0,0,0
1-chlorodecane,356.0,1,ClCCCCCCCCCC,carroll11,0,0,0,0
2-chloropropane,241.0,1,ClC(C)C,carroll11,0,0,0,0
2-chlorobutane,258.0,1,ClC(C)CC,carroll11,0,0,0,0
2-chloropentane,274.0,1,ClC(C)CCC,carroll11,0,0,0,0
3-chloropropene,245.0,1,ClCC=C,carroll11,0,0,0,0
2-chloro-2-methylpropane,250.0,1,ClC(C)(C)C,carroll11,0,0,0,0
1-chloro-2-methylpropane,256.0,1,ClCC(C)C,carroll11,0,0,0,0
chlorocyclopentane,288.0,1,ClC1CCCC1,carroll11,0,0,0,0
chlorocyclohexane,301.0,1,ClC1CCCCC1,carroll11,0,0,0,0
"1,1-dichloropropane",280.0,1,ClC(CC)Cl,carroll11,0,0,0,0
"1,1-dichloroethane",263.0,1,ClC(C)Cl,carroll11,0,0,0,0
"1,2-dichloroethane",286.0,1,ClCCCl,carroll11,0,0,0,0
"1,2-dichloropropane",286.0,1,ClCC(C)Cl,carroll11,0,0,0,0
"1,3-dichloropropane",294.0,1,ClCCCCl,carroll11,0,0,0,0
bromoethane,253.0,1,BrCC,carroll11,0,0,0,0
1-bromopropane,269.0,1,BrCCC,carroll11,0,0,0,0
1-bromobutane,283.0,1,BrCCCC,carroll11,0,0,0,0
1-bromopentane,303.0,1,BrCCCCC,carroll11,0,0,0,0
1-bromohexane,320.0,1,BrCCCCCC,carroll11,0,0,0,0
1-bromoheptane,334.0,1,BrCCCCCCC,carroll11,0,0,0,0
1-bromooctane,351.0,1,BrCCCCCCCC,carroll11,0,0,0,0
2-bromopentane,294.0,1,BrC(C)CCC,carroll11,0,0,0,0
2-bromohexane,313.0,1,BrC(C)CCCC,carroll11,0,0,0,0
3-bromopentane,292.0,1,BrC(CC)CC,carroll11,0,0,0,0
bromocyclopentane,308.0,1,BrC1CCCC1,carroll11,0,0,0,0
3-bromohexane,313.0,1,BrC(CC)CCC,carroll11,0,0,0,0
bromocyclohexane,335.0,1,BrC1CCCCC1,carroll11,0,0,0,0
iodoethane,268.0,1,ICC,carroll11,0,0,0,0
2-iodobutane,297.0,1,IC(C)CC,carroll11,0,0,0,0
1-iodobutane,306.0,1,ICCCC,carroll11,0,0,0,0
2-iodopentane,318.0,1,IC(C)CCC,carroll11,0,0,0,0
iodocyclopentane,325.0,1,IC1CCCC1,carroll11,0,0,0,0
3-iodohexane,328.0,1,IC(CC)CCC,carroll11,0,0,0,0
1-iodohexane,334.0,1,ICCCCCC,carroll11,0,0,0,0
1-iodoheptane,352.0,1,ICCCCCCC,carroll11,0,0,0,0
1-iodooctane,368.0,1,ICCCCCCCC,carroll11,0,0,0,0
dimethyldisulfide,283.0,1,CSSC,carroll11,0,0,0,0
diethyldisulfide,312.0,1,C(C)SSCC,carroll11,0,0,0,0
dipropyldisulfide,339.0,1,C(CC)SSCCC,carroll11,0,0,0,0
di-tert-butyldisulfide,340.0,1,C(C)(C)(C)SSC(C)(C)C,carroll11,0,0,0,0
dibutyldisulfide,366.0,1,C(CCC)SSCCCC,carroll11,0,0,0,0
ethylpropyldisulfide,330.0,1,C(C)SSCCC,carroll11,0,0,0,0
nitrocyclohexane,354.0,1,[N+](=O)([O-])C1CCCCC1,carroll11,0,0,0,0
nitrocyclopentane,340.0,1,[N+](=O)([O-])C1CCCC1,carroll11,0,0,0,0
nitroethane,301.0,1,[N+](=O)([O-])CC,carroll11,0,0,0,0
2-nitropropane,301.0,1,[N+](=O)([O-])C(C)C,carroll11,0,0,0,0
1-nitropropane,307.0,1,[N+](=O)([O-])CCC,carroll11,0,0,0,0
1-nitrobutane,320.0,1,[N+](=O)([O-])CCCC,carroll11,0,0,0,0
1-nitropentane,334.0,1,[N+](=O)([O-])CCCCC,carroll11,0,0,0,0
1-nitrohexane,345.0,1,[N+](=O)([O-])CCCCCC,carroll11,0,0,0,0
2-nitropentane,319.0,1,[N+](=O)([O-])C(C)CCC,carroll11,0,0,0,0
ethylvinylether,228.0,1,C(C)OC=C,carroll11,0,0,0,0
allylamine,245.0,1,C(C=C)N,carroll11,0,0,0,0
acrolein,254.0,1,C(=O)C=C,carroll11,0,0,0,0
"2,3-dihydrofuran",249.0,1,O1CCC=C1,carroll11,0,0,0,0
propylvinylether,251.0,1,C(CC)OC=C,carroll11,0,0,0,0
allylethylether,253.0,1,C(C=C)OCC,carroll11,0,0,0,0
tert-butylvinylether,256.0,1,C(C)(C)(C)OC=C,carroll11,0,0,0,0
2-methyl-2-propenal,258.0,1,CC(C=O)=C,carroll11,0,0,0,0
3-chloro-2-methyl-1-propene,261.0,1,ClCC(=C)C,carroll11,0,0,0,0
"2,3-dihydro-5-methylfuran",261.0,1,CC1=CCCO1,carroll11,0,0,0,0
isobutylvinylether,264.0,1,C(C(C)C)OC=C,carroll11,0,0,0,0
diallylether,266.0,1,C(C=C)OCC=C,carroll11,0,0,0,0
allylpropylether,268.0,1,C(C=C)OCCC,carroll11,0,0,0,0
acrylonitrile,268.0,1,C(C=C)#N,carroll11,0,0,0,0
methylacrylate,270.0,1,COC(C=C)=O,carroll11,0,0,0,0
ethylacrylate,281.0,1,C(C)OC(C=C)=O,carroll11,0,0,0,0
4-bromo-1-butene,282.0,1,BrCCC=C,carroll11,0,0,0,0
ethylmethacrylate,292.0,1,C(C)OC(C(=C)C)=O,carroll11,0,0,0,0
methylmethacrylate,283.0,1,COC(C(=C)C)=O,carroll11,0,0,0,0
butylmethacrylate,322.0,1,C(CCC)OC(C(=C)C)=O,carroll11,0,0,0,0
isobutylmethacrylate,314.0,1,C(C(C)C)OC(C(=C)C)=O,carroll11,0,0,0,0
isopropenylacetate,283.0,1,C(=C)(C)CC(=O)[O-],carroll11,0,0,0,0
allylformate,279.0,1,C(C=C)C(=O)[O-],carroll11,0,0,0,0
allylacetate,284.0,1,C(C=C)CC(=O)[O-],carroll11,0,0,0,0
allylpropanoate,298.0,1,C(C=C)OC(CC)=O,carroll11,0,0,0,0
allylbutanoate,315.0,1,C(C=C)OC(CCC)=O,carroll11,0,0,0,0
trans-2-butenal,282.0,1,C(\C=C\C)=O,carroll11,0,0,0,0
3-iodo-1-propene,289.0,1,ICC=C,carroll11,0,0,0,0
3-buten-2-ol,293.0,1,CC(C=C)O,carroll11,0,0,0,0
vinylacetate,265.0,1,C(=C)CC(=O)[O-],carroll11,0,0,0,0
vinylpropanoate,279.0,1,C(=C)OC(CC)=O,carroll11,0,0,0,0
vinylbutanoate,293.0,1,C(=C)OC(CCC)=O,carroll11,0,0,0,0
2-butenenitrile,290.0,1,C(C=CC)#N,carroll11,0,0,0,0
diallyldisulfide,335.0,1,C(C=C)SSCC=C,carroll11,0,0,0,0
4-penten-1-ol,316.0,1,C(CCC=C)O,carroll11,0,0,0,0
3-butenenitrile,294.0,1,C(CC=C)#N,carroll11,0,0,0,0
propylacrylate,297.0,1,C(CC)OC(C=C)=O,carroll11,0,0,0,0
mesityloxide,298.0,1,C1(=C(C(=CC(=C1)C)C)OC1=C(C=C(C=C1C)C)C)C,carroll11,0,0,0,0
styrene,304.0,1,C=CC1=CC=CC=C1,carroll11,0,0,0,0
propylmethacrylate,308.0,1,C(CC)OC(C(=C)C)=O,carroll11,0,0,0,0
3-buten-1-ol,305.0,1,C(CC=C)O,carroll11,0,0,0,0
2-methyl-2-propen-1-ol,306.0,1,CC(CO)=C,carroll11,0,0,0,0
butylacrylate,310.0,1,C(CCC)OC(C=C)=O,carroll11,0,0,0,0
4-methylstyrene,319.0,1,CC1=CC=C(C=C)C=C1,carroll11,0,0,0,0
4-pentenylacetate,318.0,1,C(CCC=C)CC(=O)[O-],carroll11,0,0,0,0
5-hexen-1-ol,320.0,1,C(CCCC=C)O,carroll11,0,0,0,0
3-methylstyrene,321.0,1,CC=1C=C(C=C)C=CC1,carroll11,0,0,0,0
2-cyclohexen-1-one,329.0,1,C1(C=CCCC1)=O,carroll11,0,0,0,0
trans-2-hexenylacetate,331.0,1,C(=C\CCCC)/CC(=O)[O-],carroll11,0,0,0,0
N-vinyl-N-methylacetamide,336.0,1,C(=C)N(C(C)=O)C,carroll11,0,0,0,0
"3,7-dimethyl-6-octenal",351.0,1,CC(CC=O)CCC=C(C)C,carroll11,0,0,0,0
isophorone,357.0,1,O=C1C=C(CC(C)(C)C1)C,carroll11,0,0,0,0
2-ethylhexylacrylate,359.0,1,C(C)C(COC(C=C)=O)CCCC,carroll11,0,0,0,0
citronellylacetate,376.0,1,C(CC(C)CCC=C(C)C)CC(=O)[O-],carroll11,0,0,0,0
9-decen-1-ol,392.0,1,C(CCCCCCCC=C)O,carroll11,0,0,0,0
5-chloro-1-pentyne,288.0,1,ClCCCC#C,carroll11,0,0,0,0
2-propyn-1-ol,309.0,1,C(C#C)O,carroll11,0,0,0,0
methyl2-octynoate,362.0,1,COC(C#CCCCCC)=O,carroll11,0,0,0,0
"1,1-dichloroethene",248.0,1,ClC(=C)Cl,carroll11,0,0,0,0
fluorobenzene,258.0,1,FC1=CC=CC=C1,carroll11,0,0,0,0
"2,2-dichloropropane",268.0,1,ClC(C)(C)Cl,carroll11,0,0,0,0
4-fluorotoluene,285.0,1,FC1=CC=C(C)C=C1,carroll11,0,0,0,0
4-fluorostyrene,308.0,1,FC1=CC=C(C=C)C=C1,carroll11,0,0,0,0
1-ethyl-4-fluorobenzene,303.0,1,C(C)C1=CC=C(C=C1)F,carroll11,0,0,0,0
"1,2-dimethyl-4-fluorobenzene",313.0,1,CC1=C(C=C(C=C1)F)C,carroll11,0,0,0,0
"1-fluoro-3,5-dimethylbenzene",308.0,1,FC1=CC(=CC(=C1)C)C,carroll11,0,0,0,0
"2,3-butanedione",283.0,1,CC(C(C)=O)=O,carroll11,0,0,0,0
2-fluorotoluene,285.0,1,FC1=C(C)C=CC=C1,carroll11,0,0,0,0
3-fluorotoluene,285.0,1,FC=1C=C(C)C=CC1,carroll11,0,0,0,0
"1,1-diethoxypropane",286.0,1,C(C)OC(CC)OCC,carroll11,0,0,0,0
N-methylmorpholine,287.0,1,CN1CCOCC1,carroll11,0,0,0,0
1-methylpyrrole,288.0,1,CN1C=CC=C1,carroll11,0,0,0,0
pyridine,290.0,1,N1=CC=CC=C1,carroll11,0,0,0,0
chloromethylmethylsulfide,290.0,1,ClCSC,carroll11,0,0,0,0
2-picoline,299.0,1,N1=C(C=CC=C1)C,carroll11,0,0,0,0
"1,2-dichlorobutane",300.0,1,ClCC(CC)Cl,carroll11,0,0,0,0
chlorobenzene,301.0,1,ClC1=CC=CC=C1,carroll11,0,0,0,0
3-methoxypropylamine,296.0,1,COCCCN,carroll11,0,0,0,0
pyrrole,306.0,1,N1C=CC=C1,carroll11,0,0,0,0
"1,2-propanediamine",306.0,1,C(C(C)N)N,carroll11,0,0,0,0
"1,3-dichlorobutane",304.0,1,ClCCC(C)Cl,carroll11,0,0,0,0
morpholine,304.0,1,N1CCOCC1,carroll11,0,0,0,0
3-picoline,309.0,1,N1=CC(=CC=C1)C,carroll11,0,0,0,0
4-picoline,311.0,1,N1=CC=C(C=C1)C,carroll11,0,0,0,0
"2,4-pentanedione",311.0,1,CC(CC(C)=O)=O,carroll11,0,0,0,0
ethylchloroacetate,326.0,1,C(C)OC(CCl)=O,carroll11,0,0,0,0
"1,4-dichlorobutane",316.0,1,ClCCCCCl,carroll11,0,0,0,0
2-chlorotoluene,320.0,1,ClC1=C(C)C=CC=C1,carroll11,0,0,0,0
3-chloro-1-propanethiol,316.0,1,ClCCCS,carroll11,0,0,0,0
2-methoxyethylacetate,316.0,1,COCCOC(C)=O,carroll11,0,0,0,0
"2,4-dimethylpyridine",320.0,1,CC1=NC=CC(=C1)C,carroll11,0,0,0,0
4-chlorotoluene,319.0,1,ClC1=CC=C(C)C=C1,carroll11,0,0,0,0
3-chlorotoluene,323.0,1,ClC=1C=C(C)C=CC1,carroll11,0,0,0,0
benzenethiol,324.0,1,C1(=CC=CC=C1)S,carroll11,0,0,0,0
bromobenzene,324.0,1,BrC1=CC=CC=C1,carroll11,0,0,0,0
2-ethoxyethylacetate,324.0,1,C(C)OCCOC(C)=O,carroll11,0,0,0,0
2-methylanisole,324.0,1,CC1=C(C=CC=C1)OC,carroll11,0,0,0,0
3-methylanisole,325.0,1,CC=1C=C(C=CC1)OC,carroll11,0,0,0,0
2-chloro-1-propanol,324.0,1,ClC(CO)C,carroll11,0,0,0,0
4-methylanisole,326.0,1,CC1=CC=C(C=C1)OC,carroll11,0,0,0,0
benzylmethylether,326.0,1,C(C1=CC=CC=C1)OC,carroll11,0,0,0,0
2-chloroethanol,328.0,1,ClCCO,carroll11,0,0,0,0
"2,4,6-trimethylpyridine",327.0,1,CC1=NC(=CC(=C1)C)C,carroll11,0,0,0,0
4-thiapentanal,334.0,1,C(CCSC)=O,carroll11,0,0,0,0
benzylethylether,332.0,1,C(C1=CC=CC=C1)OCC,carroll11,0,0,0,0
benzylchloride,333.0,1,C(C1=CC=CC=C1)Cl,carroll11,0,0,0,0
benzaldehyde,335.0,1,C(C1=CC=CC=C1)=O,carroll11,0,0,0,0
1-bromo-3-ethylbenzene,344.0,1,BrC1=CC(=CC=C1)CC,carroll11,0,0,0,0
"1,5-dichloropentane",336.0,1,ClCCCCCCl,carroll11,0,0,0,0
1-chloro-4-ethylbenzene,335.0,1,ClC1=CC=C(C=C1)CC,carroll11,0,0,0,0
benzylamine,338.0,1,C(C1=CC=CC=C1)N,carroll11,0,0,0,0
2-mercaptoethanol,341.0,1,SCCO,carroll11,0,0,0,0
aniline,343.0,1,NC1=CC=CC=C1,carroll11,0,0,0,0
2-ethyl-6-methylaniline,375.0,1,C(C)C1=C(N)C(=CC=C1)C,carroll11,0,0,0,0
benzonitrile,343.0,1,C(C1=CC=CC=C1)#N,carroll11,0,0,0,0
benzylmercaptan,343.0,1,C(C1=CC=CC=C1)S,carroll11,0,0,0,0
ethylacetoacetate,343.0,1,C(C)OC(CC(=O)C)=O,carroll11,0,0,0,0
2-butoxyethylacetate,344.0,1,C(CCC)OCCOC(C)=O,carroll11,0,0,0,0
benzylmethylsulfide,346.0,1,C(C1=CC=CC=C1)SC,carroll11,0,0,0,0
3-chloro-1-propanol,346.0,1,ClCCCO,carroll11,0,0,0,0
tert-butylacetoacetate,349.0,1,C(C)(C)(C)OC(CC(=O)C)=O,carroll11,0,0,0,0
iodobenzene,347.0,1,IC1=CC=CC=C1,carroll11,0,0,0,0
3-bromotoluene,348.0,1,BrC=1C=C(C)C=CC1,carroll11,0,0,0,0
"N,N-dimethylaniline",348.0,1,CN(C1=CC=CC=C1)C,carroll11,0,0,0,0
1-bromo-2-ethylbenzene,352.0,1,BrC1=C(C=CC=C1)CC,carroll11,0,0,0,0
acetophenone,350.0,1,C(C)(=O)C1=CC=CC=C1,carroll11,0,0,0,0
2-bromotoluene,351.0,1,BrC1=C(C)C=CC=C1,carroll11,0,0,0,0
N-methylaniline,352.0,1,CNC1=CC=CC=C1,carroll11,0,0,0,0
benzylbromide,352.0,1,C(C1=CC=CC=C1)Br,carroll11,0,0,0,0
"2,5-hexanedione",351.0,1,CC(CCC(C)=O)=O,carroll11,0,0,0,0
methylbenzoate,353.0,1,COC(C1=CC=CC=C1)=O,carroll11,0,0,0,0
ethylbenzoate,357.0,1,C(C)OC(C1=CC=CC=C1)=O,carroll11,0,0,0,0
propylbenzoate,371.0,1,C(CC)OC(C1=CC=CC=C1)=O,carroll11,0,0,0,0
butylbenzoate,380.0,1,C(CCC)OC(C1=CC=CC=C1)=O,carroll11,0,0,0,0
pentylbenzoate,393.0,1,C(CCCC)OC(C1=CC=CC=C1)=O,carroll11,0,0,0,0
1-iodo-3-methylbenzene,356.0,1,IC1=CC(=CC=C1)C,carroll11,0,0,0,0
o-toluidine,358.0,1,NC=1C(=CC=CC1)C,carroll11,0,0,0,0
2-ethylphenol,358.0,1,C(C)C1=C(C=CC=C1)O,carroll11,0,0,0,0
3-methylphenylacetate,358.0,1,CC=1C=C(C=CC1)CC(=O)[O-],carroll11,0,0,0,0
m-cresol,359.0,1,C1=C(C=CC=C1O)C,carroll11,0,0,0,0
3-methylaniline,359.0,1,CC=1C=C(N)C=CC1,carroll11,0,0,0,0
4-ethylaniline,370.0,1,C(C)C1=CC=C(N)C=C1,carroll11,0,0,0,0
3-ethylaniline,358.0,1,C(C)C=1C=C(N)C=CC1,carroll11,0,0,0,0
2-ethylaniline,358.0,1,C(C)C1=C(N)C=CC=C1,carroll11,0,0,0,0
nitrobenzene,361.0,1,[N+](=O)([O-])C1=CC=CC=C1,carroll11,0,0,0,0
"N,N-diethylaniline",361.0,1,C(C)N(C1=CC=CC=C1)CC,carroll11,0,0,0,0
2-isopropylphenol,362.0,1,C(C)(C)C1=C(C=CC=C1)O,carroll11,0,0,0,0
2-iodotoluene,363.0,1,IC1=C(C)C=CC=C1,carroll11,0,0,0,0
4-iodotoluene,363.0,1,IC1=CC=C(C)C=C1,carroll11,0,0,0,0
4-propylanisole,355.0,1,C(CC)C1=CC=C(C=C1)OC,carroll11,0,0,0,0
1-phenyl-2-butanone,364.0,1,C1(=CC=CC=C1)CC(CC)=O,carroll11,0,0,0,0
1-phenylethylacetate,364.0,1,C1(=CC=CC=C1)C(C)OC(C)=O,carroll11,0,0,0,0
benzylalcohol,366.0,1,C(C1=CC=CC=C1)O,carroll11,0,0,0,0
2-propylphenol,366.0,1,C(CC)C1=C(C=CC=C1)O,carroll11,0,0,0,0
"2,4-dimethylphenol",367.0,1,CC1=C(C=CC(=C1)C)O,carroll11,0,0,0,0
3-ethylphenol,367.0,1,C(C)C=1C=C(C=CC1)O,carroll11,0,0,0,0
1-phenylethylpropionate,379.0,1,C1(=CC=CC=C1)C(C)OC(CC)=O,carroll11,0,0,0,0
benzylacetate,363.0,1,C(C1=CC=CC=C1)CC(=O)[O-],carroll11,0,0,0,0
"1,5-pentanedithiol",368.0,1,C(CCCCS)S,carroll11,0,0,0,0
"2,3-dimethylaniline",369.0,1,CC1=C(N)C=CC=C1C,carroll11,0,0,0,0
benzylpropanoate,369.0,1,C(C1=CC=CC=C1)OC(CC)=O,carroll11,0,0,0,0
1-phenyl-1-butanone,361.0,1,C1(=CC=CC=C1)C(CCC)=O,carroll11,0,0,0,0
benzyliodide,370.0,1,C(C1=CC=CC=C1)I,carroll11,0,0,0,0
benzylcyanide,374.0,1,C(C1=CC=CC=C1)C#N,carroll11,0,0,0,0
4-tert-butylaniline,375.0,1,C(C)(C)(C)C1=CC=C(N)C=C1,carroll11,0,0,0,0
3-tert-butylaniline,374.0,1,C(C)(C)(C)C=1C=C(N)C=CC1,carroll11,0,0,0,0
4-butylaniline,375.0,1,C(CCC)C1=CC=C(N)C=C1,carroll11,0,0,0,0
4-propylaniline,376.0,1,C(CC)C1=CC=C(N)C=C1,carroll11,0,0,0,0
2-propylaniline,370.0,1,C(CC)C1=C(N)C=CC=C1,carroll11,0,0,0,0
2-isopropylaniline,368.0,1,C(C)(C)C1=C(N)C=CC=C1,carroll11,0,0,0,0
3-isopropylphenol,377.0,1,C(C)(C)C=1C=C(C=CC1)O,carroll11,0,0,0,0
quinoline,374.0,1,N1=CC=CC2=CC=CC=C12,carroll11,0,0,0,0
2-phenylethylacetate,375.0,1,C1(=CC=CC=C1)CCOC(C)=O,carroll11,0,0,0,0
4-propylphenol,379.0,1,C(CC)C1=CC=C(C=C1)O,carroll11,0,0,0,0
2-phenylethylpropionate,386.0,1,C1(=CC=CC=C1)CCOC(CC)=O,carroll11,0,0,0,0
benzylbutanoate,380.0,1,C(C1=CC=CC=C1)OC(CCC)=O,carroll11,0,0,0,0
2-sec-butylphenol,380.0,1,C(C)(CC)C1=C(C=CC=C1)O,carroll11,0,0,0,0
N-butylaniline,380.0,1,C(CCC)NC1=CC=CC=C1,carroll11,0,0,0,0
N-sec-butylaniline,366.0,1,C(C)(CC)NC1=CC=CC=C1,carroll11,0,0,0,0